Program Version,EnergyPlus, Version 22.1.0-ed759b17ee, YMD=2022.11.28 22:36
1,5,Environment Title[],Latitude[deg],Longitude[deg],Time Zone[],Elevation[m]
2,8,Day of Simulation[],Month[],Day of Month[],DST Indicator[1=yes 0=no],Hour[],StartMinute[],EndMinute[],DayType
3,5,Cumulative Day of Simulation[],Month[],Day of Month[],DST Indicator[1=yes 0=no],DayType  ! When Daily Report Variables Requested
4,2,Cumulative Days of Simulation[],Month[]  ! When Monthly Report Variables Requested
5,1,Cumulative Days of Simulation[] ! When Run Period Report Variables Requested
6,1,Calendar Year of Simulation[] ! When Annual Report Variables Requested
4046,1,Cooling:Electricity [J] !Hourly
10,1,Electricity:Facility [J] !Hourly
3661,1,ExteriorEquipment:Electricity [J] !Hourly
4102,1,ExteriorLights:Electricity [J] !Hourly
3934,1,Fans:Electricity [J] !Hourly
3969,1,Heating:Electricity [J] !Hourly
4011,1,Heating:NaturalGas [J] !Hourly
1044,1,InteriorEquipment:Electricity [J] !Hourly
1767,1,InteriorEquipment:NaturalGas [J] !Hourly
58,1,InteriorLights:Electricity [J] !Hourly
1719,1,NaturalGas:Facility [J] !Hourly
4414,1,Pumps:Electricity [J] !Hourly
1926,1,Refrigeration:Electricity [J] !Hourly
4361,1,WaterSystems:Electricity [J] !Hourly
4319,1,WaterSystems:NaturalGas [J] !Hourly
9,1,Electricity:Facility [J] !TimeStep
1718,1,NaturalGas:Facility [J] !TimeStep
End of Data Dictionary
1,SAN.DIEGO-BROWN.FIELD.MUNI.AP_CA_USA ANN CLG .4% CONDNS DB=>MWB HVAC Sizing Pass 1,  32.58,-116.98,  -8.00, 159.00
2,1, 8,21, 0, 1, 0.00,10.00,SummerDesignDay
9,80484990.16499804
1718,3467573.509829088
2,1, 8,21, 0, 1,10.00,20.00,SummerDesignDay
9,81814467.2088401
1718,13367680.154694166
2,1, 8,21, 0, 1,20.00,30.00,SummerDesignDay
9,75828980.11970034
1718,13341896.467494087
2,1, 8,21, 0, 1,30.00,40.00,SummerDesignDay
9,58161948.480068736
1718,13473163.083840694
2,1, 8,21, 0, 1,40.00,50.00,SummerDesignDay
9,92515634.58212103
1718,12231686.908178672
2,1, 8,21, 0, 1,50.00,60.00,SummerDesignDay
9,79824541.63351403
1718,4762918.2706805235
2,1, 8,21, 0, 1, 0.00,60.00,SummerDesignDay
10,468630562.18924224
58,218445036.8900737
1044,112521152.67530534
1719,60644918.39471724
1767,17312252.683240693
1926,10933824.136745024
3661,1497806.4632427648
3934,20262242.969327375
3969,0.0
4011,0.0
4046,99405469.45223159
4102,4019677.2
4319,43332665.71147654
4361,1182692.9676046332
4414,362659.4347119134
2,1, 8,21, 0, 2, 0.00,10.00,SummerDesignDay
9,79083880.6964012
1718,13326807.23702667
2,1, 8,21, 0, 2,10.00,20.00,SummerDesignDay
9,58154991.605880275
1718,13388238.253277786
2,1, 8,21, 0, 2,20.00,30.00,SummerDesignDay
9,92136475.19943753
1718,13452951.671731219
2,1, 8,21, 0, 2,30.00,40.00,SummerDesignDay
9,79290671.88639592
1718,11944686.034235492
2,1, 8,21, 0, 2,40.00,50.00,SummerDesignDay
9,78851885.88378155
1718,5024176.338110135
2,1, 8,21, 0, 2,50.00,60.00,SummerDesignDay
9,58236310.27533117
1718,13332923.509586425
2,1, 8,21, 0, 2, 0.00,60.00,SummerDesignDay
10,445754215.5472276
58,218445036.8900737
1044,112521152.67530534
1719,70469783.04396772
1767,17312252.683240693
1926,10887560.283202313
3661,1502186.8117777004
3934,14350547.40743519
3969,0.0
4011,0.0
4046,82285809.71730821
4102,4019677.2
4319,53157530.360727035
4361,1379585.1274132724
4414,362659.4347119134
2,1, 8,21, 0, 3, 0.00,10.00,SummerDesignDay
9,91347860.41248521
1718,13403747.42341099
2,1, 8,21, 0, 3,10.00,20.00,SummerDesignDay
9,78343976.06375413
1718,13334658.303077754
2,1, 8,21, 0, 3,20.00,30.00,SummerDesignDay
9,77975042.0088666
1718,12833367.489465056
2,1, 8,21, 0, 3,30.00,40.00,SummerDesignDay
9,57684676.46678212
1718,4056681.7706400426
2,1, 8,21, 0, 3,40.00,50.00,SummerDesignDay
9,91013773.63356404
1718,13490712.92193506
2,1, 8,21, 0, 3,50.00,60.00,SummerDesignDay
9,77900227.72086813
1718,13481456.658131842
2,1, 8,21, 0, 3, 0.00,60.00,SummerDesignDay
10,474265556.30632025
58,218445036.8900737
1044,112521152.67530534
1719,70600624.56666075
1767,17312252.683240693
1926,8099717.675622111
3661,1502186.8117777004
3934,21687633.757846814
3969,0.0
4011,0.0
4046,106445373.45969428
4102,4019677.2
4319,53288371.88342005
4361,1182118.4012883888
4414,362659.4347119134
2,1, 8,21, 0, 4, 0.00,10.00,SummerDesignDay
9,77683315.93801707
1718,13362165.759273212
2,1, 8,21, 0, 4,10.00,20.00,SummerDesignDay
9,57684053.547545716
1718,11244248.244443938
2,1, 8,21, 0, 4,20.00,30.00,SummerDesignDay
9,90723876.30907056
1718,5735142.207950022
2,1, 8,21, 0, 4,30.00,40.00,SummerDesignDay
9,77492566.25122952
1718,13385570.886988694
2,1, 8,21, 0, 4,40.00,50.00,SummerDesignDay
9,77577534.18272002
1718,13344569.762809103
2,1, 8,21, 0, 4,50.00,60.00,SummerDesignDay
9,57683304.19420825
1718,13438793.680780413
2,1, 8,21, 0, 4, 0.00,60.00,SummerDesignDay
10,438844650.4227912
58,218445036.8900737
1044,112521152.67530534
1719,70510490.54224539
1767,17312252.683240693
1926,8070645.284955812
3661,1502186.8117777004
3934,13705625.53376701
3969,0.0
4011,0.0
4046,78838392.09074281
4102,4019677.2
4319,53198237.85900469
4361,1379274.50145691
4414,362659.4347119134
2,1, 8,21, 0, 5, 0.00,10.00,SummerDesignDay
9,90490191.672413
1718,10792300.356377637
2,1, 8,21, 0, 5,10.00,20.00,SummerDesignDay
9,77100072.2041935
1718,6167245.301536923
2,1, 8,21, 0, 5,20.00,30.00,SummerDesignDay
9,77161048.70229904
1718,13328236.96224381
2,1, 8,21, 0, 5,30.00,40.00,SummerDesignDay
9,57716579.37834759
1718,13404363.879446048
2,1, 8,21, 0, 5,40.00,50.00,SummerDesignDay
9,90250784.74740158
1718,13426537.979251532
2,1, 8,21, 0, 5,50.00,60.00,SummerDesignDay
9,76732322.34450789
1718,10811358.081804644
2,1, 8,21, 0, 5, 0.00,60.00,SummerDesignDay
10,469450999.0491626
58,218445036.8900737
1044,112521152.67530534
1719,67930042.5606606
1767,17312252.683240693
1926,8267411.36992863
3661,1502186.8117777004
3934,20883430.17744045
3969,0.0
4011,0.0
4046,102266581.8061134
4102,4019677.2
4319,50617789.877419904
4361,1182862.683811541
4414,362659.4347119134
2,1, 8,21, 0, 6, 0.00,10.00,SummerDesignDay
9,76911528.51473586
1718,6144271.4918931695
2,1, 8,21, 0, 6,10.00,20.00,SummerDesignDay
9,57045709.71337283
1718,13375419.476087855
2,1, 8,21, 0, 6,20.00,30.00,SummerDesignDay
9,89567054.36458457
1718,13429705.821436329
2,1, 8,21, 0, 6,30.00,40.00,SummerDesignDay
9,76468391.8722524
1718,13366664.865295095
2,1, 8,21, 0, 6,40.00,50.00,SummerDesignDay
9,76705101.4727868
1718,11347299.902699754
2,1, 8,21, 0, 6,50.00,60.00,SummerDesignDay
9,57049253.64429259
1718,5509715.626954515
2,1, 8,21, 0, 6, 0.00,60.00,SummerDesignDay
10,433747039.58202505
58,218445036.8900737
1044,112521152.67530534
1719,63173077.184366725
1767,17312252.683240693
1926,8268702.977538906
3661,1502186.8117777004
3934,13511256.715587758
3969,0.0
4011,0.0
4046,77086082.44795024
4102,669946.2
4319,45860824.50112602
4361,1380015.429079574
4414,362659.4347119134
2,1, 8,21, 0, 7, 0.00,10.00,SummerDesignDay
9,90689403.86249642
1718,13537017.20902413
2,1, 8,21, 0, 7,10.00,20.00,SummerDesignDay
9,77430958.44623779
1718,13430530.362565773
2,1, 8,21, 0, 7,20.00,30.00,SummerDesignDay
9,77667524.04932787
1718,13368532.135534765
2,1, 8,21, 0, 7,30.00,40.00,SummerDesignDay
9,57267509.54974626
1718,9713188.610062506
2,1, 8,21, 0, 7,40.00,50.00,SummerDesignDay
9,91652979.47399029
1718,7233296.995449063
2,1, 8,21, 0, 7,50.00,60.00,SummerDesignDay
9,78881684.3814886
1718,13413103.65979058
2,1, 8,21, 0, 7, 0.00,60.00,SummerDesignDay
10,473590059.76328725
58,218445036.8900737
1044,112521152.67530534
1719,70695668.97242682
1767,17312252.683240693
1926,9587218.301187523
3661,1502186.8117777004
3934,22995073.593167655
3969,0.0
4011,0.0
4046,106994467.53414053
4102,0.0
4319,53383416.28918612
4361,1182264.5229229296
4414,362659.4347119134
2,1, 8,21, 0, 8, 0.00,10.00,SummerDesignDay
9,92004550.18883462
1718,13840287.63228163
2,1, 8,21, 0, 8,10.00,20.00,SummerDesignDay
9,90903610.3244096
1718,13847684.960297482
2,1, 8,21, 0, 8,20.00,30.00,SummerDesignDay
9,90216325.27724917
1718,13767089.4457416
2,1, 8,21, 0, 8,30.00,40.00,SummerDesignDay
9,89900984.22309974
1718,5471193.88955581
2,1, 8,21, 0, 8,40.00,50.00,SummerDesignDay
9,89610909.87072577
1718,11676865.724674221
2,1, 8,21, 0, 8,50.00,60.00,SummerDesignDay
9,89061179.66811912
1718,13538205.729390306
2,1, 8,21, 0, 8, 0.00,60.00,SummerDesignDay
10,541697559.5524379
58,218445036.8900737
1044,112521152.67530534
1719,72141327.38194105
1767,17312252.683240693
1926,10067032.438024517
3661,1502186.8117777007
3934,27298252.036710374
3969,0.0
4011,0.0
4046,170121163.25780255
4102,0.0
4319,54829074.69870035
4361,1380076.0080319901
4414,362659.43471191346
2,1, 8,21, 0, 9, 0.00,10.00,SummerDesignDay
9,141403623.450764
1718,33151363.929970194
2,1, 8,21, 0, 9,10.00,20.00,SummerDesignDay
9,143674530.11623514
1718,33273859.335358616
2,1, 8,21, 0, 9,20.00,30.00,SummerDesignDay
9,145935591.30895597
1718,33285053.84060902
2,1, 8,21, 0, 9,30.00,40.00,SummerDesignDay
9,148334398.81021106
1718,34249456.65847947
2,1, 8,21, 0, 9,40.00,50.00,SummerDesignDay
9,150710551.31488985
1718,36336930.765891485
2,1, 8,21, 0, 9,50.00,60.00,SummerDesignDay
9,152563717.13997772
1718,36135798.71981238
2,1, 8,21, 0, 9, 0.00,60.00,SummerDesignDay
10,882622412.1410336
58,218445036.8900737
1044,278767134.2922686
1719,206432463.25012118
1767,129841895.12430517
1926,9801773.646723667
3661,4855189.796598098
3934,69006394.74636333
3969,0.0
4011,0.0
4046,294024327.0367634
4102,0.0
4319,76590568.12581599
4361,7359896.297531111
4414,362659.4347119134
2,1, 8,21, 0,10, 0.00,10.00,SummerDesignDay
9,159790182.9643324
1718,38810832.480895564
2,1, 8,21, 0,10,10.00,20.00,SummerDesignDay
9,161595708.8791115
1718,34435288.08762765
2,1, 8,21, 0,10,20.00,30.00,SummerDesignDay
9,163601636.5416686
1718,34547083.69817121
2,1, 8,21, 0,10,30.00,40.00,SummerDesignDay
9,165583964.84841064
1718,40128007.5511633
2,1, 8,21, 0,10,40.00,50.00,SummerDesignDay
9,167060644.56310767
1718,41218720.551793866
2,1, 8,21, 0,10,50.00,60.00,SummerDesignDay
9,168798421.4062784
1718,34419668.99540697
2,1, 8,21, 0,10, 0.00,60.00,SummerDesignDay
10,986430559.2029092
58,218445036.8900737
1044,278767134.2922686
1719,223559601.3650586
1767,129841895.12430517
1926,10058408.60246251
3661,4855189.796598098
3934,86695988.70527607
3969,0.0
4011,0.0
4046,374279674.184091
4102,0.0
4319,93717706.24075338
4361,12966467.297427436
4414,362659.4347119134
2,1, 8,21, 0,11, 0.00,10.00,SummerDesignDay
9,173625776.40744978
1718,41890657.849880345
2,1, 8,21, 0,11,10.00,20.00,SummerDesignDay
9,174947355.07088614
1718,47004329.118323684
2,1, 8,21, 0,11,20.00,30.00,SummerDesignDay
9,176462600.94175172
1718,49274663.12578959
2,1, 8,21, 0,11,30.00,40.00,SummerDesignDay
9,177551719.4255944
1718,41795329.241491854
2,1, 8,21, 0,11,40.00,50.00,SummerDesignDay
9,179103892.9524264
1718,41914103.82797605
2,1, 8,21, 0,11,50.00,60.00,SummerDesignDay
9,180243661.4575268
1718,47572302.972586006
2,1, 8,21, 0,11, 0.00,60.00,SummerDesignDay
10,1061935006.2556353
58,218445036.8900737
1044,293164776.73755354
1719,269451386.1360475
1767,173122526.83240697
1926,12269697.169586383
3661,5333461.981688083
3934,99811174.62110172
3969,0.0
4011,0.0
4046,418981888.6903968
4102,0.0
4319,96328859.30364057
4361,13566310.730523285
4414,362659.4347119134
2,1, 8,21, 0,12, 0.00,10.00,SummerDesignDay
9,181715144.42992076
1718,49407265.826685295
2,1, 8,21, 0,12,10.00,20.00,SummerDesignDay
9,182747706.19944844
1718,42337109.98077309
2,1, 8,21, 0,12,20.00,30.00,SummerDesignDay
9,183779686.8863515
1718,44221887.16625252
2,1, 8,21, 0,12,30.00,40.00,SummerDesignDay
9,184674563.14028618
1718,52694198.34362504
2,1, 8,21, 0,12,40.00,50.00,SummerDesignDay
9,185520849.96374774
1718,43280585.31899076
2,1, 8,21, 0,12,50.00,60.00,SummerDesignDay
9,186440889.42309764
1718,42440933.63286728
2,1, 8,21, 0,12, 0.00,60.00,SummerDesignDay
10,1104878840.0428524
58,218445036.8900737
1044,293164776.73755354
1719,274381980.269194
1767,173122526.83240697
1926,13096564.185469672
3661,5333461.981688083
3934,109705108.00526974
3969,0.0
4011,0.0
4046,449117276.71070457
4102,0.0
4319,101259453.43678704
4361,15653956.097381102
4414,362659.4347119134
2,1, 8,21, 0,13, 0.00,10.00,SummerDesignDay
9,187565469.4559433
1718,51662632.34617038
2,1, 8,21, 0,13,10.00,20.00,SummerDesignDay
9,188246900.8407209
1718,47354646.68674021
2,1, 8,21, 0,13,20.00,30.00,SummerDesignDay
9,188780217.73914462
1718,42843900.464561686
2,1, 8,21, 0,13,30.00,40.00,SummerDesignDay
9,189350281.76495412
1718,50567856.23266728
2,1, 8,21, 0,13,40.00,50.00,SummerDesignDay
9,189917478.29001963
1718,48539016.05376547
2,1, 8,21, 0,13,50.00,60.00,SummerDesignDay
9,190387538.79385558
1718,42821418.43640114
2,1, 8,21, 0,13, 0.00,60.00,SummerDesignDay
10,1134247886.884638
58,218445036.8900737
1044,293164776.73755354
1719,283789470.22030616
1767,173122526.83240697
1926,11420429.674857676
3661,5333461.981688083
3934,117347563.25731052
3969,0.0
4011,0.0
4046,471290519.41319144
4102,0.0
4319,110666943.38789925
4361,16883439.495251372
4414,362659.4347119134
2,1, 8,21, 0,14, 0.00,10.00,SummerDesignDay
9,188683635.4966582
1718,35643452.89227744
2,1, 8,21, 0,14,10.00,20.00,SummerDesignDay
9,188676625.5021865
1718,35355107.26516323
2,1, 8,21, 0,14,20.00,30.00,SummerDesignDay
9,188903710.8237068
1718,28673522.19102096
2,1, 8,21, 0,14,30.00,40.00,SummerDesignDay
9,189005095.91260332
1718,35864343.22048324
2,1, 8,21, 0,14,40.00,50.00,SummerDesignDay
9,189262721.88728473
1718,35188058.59980677
2,1, 8,21, 0,14,50.00,60.00,SummerDesignDay
9,189201335.85712153
1718,28658777.243702706
2,1, 8,21, 0,14, 0.00,60.00,SummerDesignDay
10,1133733125.479561
58,218445036.8900737
1044,278767134.2922686
1719,199383261.41245437
1767,86561263.41620348
1926,10649698.487382121
3661,4855189.796598098
3934,122135338.84953406
3969,0.0
4011,0.0
4046,480511917.41961396
4102,0.0
4319,112821997.99625087
4361,18006150.30937878
4414,362659.4347119134
2,1, 8,21, 0,15, 0.00,10.00,SummerDesignDay
9,188256406.4714327
1718,31999550.82433437
2,1, 8,21, 0,15,10.00,20.00,SummerDesignDay
9,188419237.22013134
1718,35266286.532245405
2,1, 8,21, 0,15,20.00,30.00,SummerDesignDay
9,188228473.47857127
1718,27251123.206191722
2,1, 8,21, 0,15,30.00,40.00,SummerDesignDay
9,188152961.74430403
1718,27353718.053397547
2,1, 8,21, 0,15,40.00,50.00,SummerDesignDay
9,188359789.59838367
1718,30916658.02035422
2,1, 8,21, 0,15,50.00,60.00,SummerDesignDay
9,188046963.48491237
1718,36092964.65392418
2,1, 8,21, 0,15, 0.00,60.00,SummerDesignDay
10,1129463831.9977353
58,218445036.8900737
1044,278767134.2922686
1719,188880301.29044747
1767,86561263.41620348
1926,10675899.029667519
3661,4855189.796598098
3934,122568424.61538854
3969,0.0
4011,0.0
4046,480696323.4055207
4102,0.0
4319,102319037.87424396
4361,13093164.533506317
4414,362659.4347119134
2,1, 8,21, 0,16, 0.00,10.00,SummerDesignDay
9,184668792.0559591
1718,16026030.349541187
2,1, 8,21, 0,16,10.00,20.00,SummerDesignDay
9,183696646.9430833
1718,16039098.747684903
2,1, 8,21, 0,16,20.00,30.00,SummerDesignDay
9,183772312.6896862
1718,21121241.730133347
2,1, 8,21, 0,16,30.00,40.00,SummerDesignDay
9,183254939.41265774
1718,23555396.730037767
2,1, 8,21, 0,16,40.00,50.00,SummerDesignDay
9,182886568.39537892
1718,15940242.924299145
2,1, 8,21, 0,16,50.00,60.00,SummerDesignDay
9,182467387.00377196
1718,16071543.05302657
2,1, 8,21, 0,16, 0.00,60.00,SummerDesignDay
10,1100746646.5005372
58,218445036.8900737
1044,271568313.0696261
1719,108753553.53472292
1767,17312252.683240693
1926,10525495.172287613
3661,4629258.124073015
3934,119740975.09983611
3969,0.0
4011,0.0
4046,461346224.2811477
4102,0.0
4319,91441300.85148223
4361,14128684.428781135
4414,362659.4347119134
2,1, 8,21, 0,17, 0.00,10.00,SummerDesignDay
9,164700505.89329273
1718,13715847.509088816
2,1, 8,21, 0,17,10.00,20.00,SummerDesignDay
9,162390750.19116122
1718,13507783.333044512
2,1, 8,21, 0,17,20.00,30.00,SummerDesignDay
9,161437121.43013984
1718,13542155.152810419
2,1, 8,21, 0,17,30.00,40.00,SummerDesignDay
9,160091349.09256387
1718,13579032.965803394
2,1, 8,21, 0,17,40.00,50.00,SummerDesignDay
9,158835277.62606576
1718,13611573.243338984
2,1, 8,21, 0,17,50.00,60.00,SummerDesignDay
9,157760009.632509
1718,8313995.72798053
2,1, 8,21, 0,17, 0.00,60.00,SummerDesignDay
10,965215013.8657324
58,218445036.8900737
1044,271568313.0696261
1719,76270387.93206665
1767,17312252.683240693
1926,9797916.220259732
3661,4629258.124073015
3934,73588630.6732616
3969,0.0
4011,0.0
4046,384535363.7468357
4102,0.0
4319,58958135.24882597
4361,2287835.706890759
4414,362659.4347119134
2,1, 8,21, 0,18, 0.00,10.00,SummerDesignDay
9,121327249.2256527
1718,8701808.454383723
2,1, 8,21, 0,18,10.00,20.00,SummerDesignDay
9,119704298.22046685
1718,13472487.167114908
2,1, 8,21, 0,18,20.00,30.00,SummerDesignDay
9,118362949.45392537
1718,13506731.92830499
2,1, 8,21, 0,18,30.00,40.00,SummerDesignDay
9,116935802.30601443
1718,13548031.108683249
2,1, 8,21, 0,18,40.00,50.00,SummerDesignDay
9,115581658.88807423
1718,13584539.122271724
2,1, 8,21, 0,18,50.00,60.00,SummerDesignDay
9,114413793.54102238
1718,13616385.394605735
2,1, 8,21, 0,18, 0.00,60.00,SummerDesignDay
10,706325751.635156
58,218445036.8900737
1044,112521152.67530534
1719,76429983.17536433
1767,17312252.683240693
1926,9690361.171078185
3661,1502186.8117777004
3934,46794546.605189644
3969,0.0
4011,0.0
4046,314722960.0301719
4102,0.0
4319,59117730.49212363
4361,2286848.016847551
4414,362659.4347119134
2,1, 8,21, 0,19, 0.00,10.00,SummerDesignDay
9,112672812.040458
1718,11499554.195972474
2,1, 8,21, 0,19,10.00,20.00,SummerDesignDay
9,111072392.82379015
1718,11292580.75973549
2,1, 8,21, 0,19,20.00,30.00,SummerDesignDay
9,111030261.30052483
1718,11005395.114021389
2,1, 8,21, 0,19,30.00,40.00,SummerDesignDay
9,109801143.09137493
1718,11303146.168957716
2,1, 8,21, 0,19,40.00,50.00,SummerDesignDay
9,108668749.73336422
1718,13842875.02790288
2,1, 8,21, 0,19,50.00,60.00,SummerDesignDay
9,107609349.98203377
1718,13846975.135805385
2,1, 8,21, 0,19, 0.00,60.00,SummerDesignDay
10,660854708.9715459
58,218445036.8900737
1044,112521152.67530534
1719,72790526.40239534
1767,17312252.683240693
1926,9557464.861723688
3661,1502186.8117777004
3934,37830527.980629146
3969,0.0
4011,0.0
4046,272420070.8562795
4102,5720721.6
4319,55478273.71915463
4361,2494887.861044983
4414,362659.4347119134
2,1, 8,21, 0,20, 0.00,10.00,SummerDesignDay
9,106637362.64833714
1718,14082909.497743418
2,1, 8,21, 0,20,10.00,20.00,SummerDesignDay
9,105886409.59010148
1718,14113968.429656843
2,1, 8,21, 0,20,20.00,30.00,SummerDesignDay
9,105141610.33680531
1718,14114724.973408652
2,1, 8,21, 0,20,30.00,40.00,SummerDesignDay
9,104371229.482245
1718,14114781.48346862
2,1, 8,21, 0,20,40.00,50.00,SummerDesignDay
9,103628855.83545071
1718,14114801.981282767
2,1, 8,21, 0,20,50.00,60.00,SummerDesignDay
9,102907582.47361028
1718,14114820.868196905
2,1, 8,21, 0,20, 0.00,60.00,SummerDesignDay
10,628573050.36655
58,218445036.8900737
1044,112521152.67530534
1719,84656007.23375721
1767,17312252.683240693
1926,9666923.736125369
3661,1502186.8117777004
3934,33126921.520310126
3969,0.0
4011,0.0
4046,242079823.6626529
4102,8581082.4
4319,67343754.55051652
4361,2287263.235592932
4414,362659.4347119134
2,1, 8,21, 0,21, 0.00,10.00,SummerDesignDay
9,100879786.05447935
1718,13999974.719442882
2,1, 8,21, 0,21,10.00,20.00,SummerDesignDay
9,100263185.97065532
1718,13987469.581813196
2,1, 8,21, 0,21,20.00,30.00,SummerDesignDay
9,99642704.06889102
1718,13989006.710819358
2,1, 8,21, 0,21,30.00,40.00,SummerDesignDay
9,98946677.19061571
1718,13990755.222476386
2,1, 8,21, 0,21,40.00,50.00,SummerDesignDay
9,98571966.78300183
1718,13992465.811807057
2,1, 8,21, 0,21,50.00,60.00,SummerDesignDay
9,98041198.43006487
1718,13994126.964630498
2,1, 8,21, 0,21, 0.00,60.00,SummerDesignDay
10,596345518.4977082
58,218445036.8900737
1044,112521152.67530534
1719,83953799.01098937
1767,17312252.683240693
1926,9551578.256648283
3661,1502186.8117777004
3934,29751234.766763646
3969,0.0
4011,0.0
4046,213343694.54209346
4102,8581082.4
4319,66641546.327748686
4361,2286892.720334151
4414,362659.4347119134
2,1, 8,21, 0,22, 0.00,10.00,SummerDesignDay
9,83715463.1890873
1718,14238598.714436082
2,1, 8,21, 0,22,10.00,20.00,SummerDesignDay
9,85959009.84306604
1718,14262769.93238834
2,1, 8,21, 0,22,20.00,30.00,SummerDesignDay
9,83413679.12354381
1718,14169944.273732794
2,1, 8,21, 0,22,30.00,40.00,SummerDesignDay
9,58807040.5162905
1718,14169195.486406676
2,1, 8,21, 0,22,40.00,50.00,SummerDesignDay
9,87842640.09705503
1718,14021256.946474224
2,1, 8,21, 0,22,50.00,60.00,SummerDesignDay
9,73855634.66149355
1718,13958971.719309764
2,1, 8,21, 0,22, 0.00,60.00,SummerDesignDay
10,473593467.4305362
58,218445036.8900737
1044,112521152.67530534
1719,84820737.07274787
1767,17312252.683240693
1926,8903167.189900942
3661,1502186.8117777004
3934,17684031.794686843
3969,0.0
4011,0.0
4046,103235291.46801245
4102,8581082.4
4319,67508484.3895072
4361,2358858.766067408
4414,362659.4347119134
2,1, 8,21, 0,23, 0.00,10.00,SummerDesignDay
9,83128966.10896333
1718,13725187.446884941
2,1, 8,21, 0,23,10.00,20.00,SummerDesignDay
9,58671074.645886175
1718,7559349.065328473
2,1, 8,21, 0,23,20.00,30.00,SummerDesignDay
9,86772069.9642022
1718,9606065.617391264
2,1, 8,21, 0,23,30.00,40.00,SummerDesignDay
9,73590371.09246784
1718,13614463.4093311
2,1, 8,21, 0,23,40.00,50.00,SummerDesignDay
9,82372134.44855313
1718,13578742.078816094
2,1, 8,21, 0,23,50.00,60.00,SummerDesignDay
9,58672339.86711512
1718,13778084.168717649
2,1, 8,21, 0,23, 0.00,60.00,SummerDesignDay
10,443206956.1271878
58,218445036.8900737
1044,112521152.67530534
1719,71861891.78646952
1767,17312252.683240693
1926,8120002.8560615005
3661,1502186.8117777004
3934,11605947.498261342
3969,0.0
4011,0.0
4046,79645500.4033749
4102,8581082.4
4319,54549639.10322882
4361,2423387.1576214726
4414,362659.4347119134
2,1, 8,21, 0,24, 0.00,10.00,SummerDesignDay
9,85832953.93522266
1718,13612527.977669418
2,1, 8,21, 0,24,10.00,20.00,SummerDesignDay
9,73173777.69770691
1718,13515764.26465733
2,1, 8,21, 0,24,20.00,30.00,SummerDesignDay
9,81438495.55782142
1718,8927962.294490412
2,1, 8,21, 0,24,30.00,40.00,SummerDesignDay
9,58666114.54290523
1718,8011578.085636232
2,1, 8,21, 0,24,40.00,50.00,SummerDesignDay
9,85084295.0617984
1718,13687064.605869334
2,1, 8,21, 0,24,50.00,60.00,SummerDesignDay
9,73022388.25780131
1718,13487347.87875817
2,1, 8,21, 0,24, 0.00,60.00,SummerDesignDay
10,457218025.0532559
58,218445036.8900737
1044,112521152.67530534
1719,71242245.1070809
1767,17312252.683240693
1926,8117552.096891163
3661,1502186.8117777004
3934,14433373.655871414
3969,0.0
4011,0.0
4046,91197958.51186797
4102,8581082.4
4319,53929992.4238402
4361,2057022.5767568054
4414,362659.4347119134
1,SAN.DIEGO-BROWN.FIELD.MUNI.AP_CA_USA ANN HTG 99.6% CONDNS DB HVAC Sizing Pass 1,  32.58,-116.98,  -8.00, 159.00
2,1,12,21, 0, 1, 0.00,10.00,WinterDesignDay
9,46051135.96139527
1718,119478293.96211667
2,1,12,21, 0, 1,10.00,20.00,WinterDesignDay
9,46124832.07493616
1718,125119804.83928292
2,1,12,21, 0, 1,20.00,30.00,WinterDesignDay
9,46196539.52424606
1718,127277423.80119127
2,1,12,21, 0, 1,30.00,40.00,WinterDesignDay
9,21031805.12481012
1718,13561293.76691626
2,1,12,21, 0, 1,40.00,50.00,WinterDesignDay
9,43621113.61697371
1718,126404035.45507269
2,1,12,21, 0, 1,50.00,60.00,WinterDesignDay
9,45638753.42513063
1718,127268903.68699357
2,1,12,21, 0, 1, 0.00,60.00,WinterDesignDay
10,248664179.72749195
58,0.0
1044,112521152.67530534
1719,639109755.5115734
1767,17312252.683240693
1926,7672970.340113826
3661,1475904.7205680858
3934,31470837.522664517
3969,0.0
4011,568106286.7607559
4046,89463401.29128613
4102,4019677.2
4319,53691216.06757675
4361,187282.62809793817
4414,1852953.3494561268
2,1,12,21, 0, 2, 0.00,10.00,WinterDesignDay
9,45893554.65256415
1718,121915133.17094335
2,1,12,21, 0, 2,10.00,20.00,WinterDesignDay
9,20893259.21711528
1718,8818544.273601172
2,1,12,21, 0, 2,20.00,30.00,WinterDesignDay
9,43217010.71514317
1718,126403835.798897
2,1,12,21, 0, 2,30.00,40.00,WinterDesignDay
9,45686034.66103147
1718,127283102.0384542
2,1,12,21, 0, 2,40.00,50.00,WinterDesignDay
9,45720647.382711016
1718,127314945.79321653
2,1,12,21, 0, 2,50.00,60.00,WinterDesignDay
9,20473313.353024732
1718,13563173.919205436
2,1,12,21, 0, 2, 0.00,60.00,WinterDesignDay
10,221883819.98158982
58,0.0
1044,112521152.67530534
1719,525298734.9943177
1767,17312252.683240693
1926,6425162.01569254
3661,1475904.7205680858
3934,25176670.018131614
3969,0.0
4011,454261175.2255104
4046,70523063.09913917
4102,4019677.2
4319,53725307.085566595
4361,187289.69476489167
4414,1554900.5579881999
2,1,12,21, 0, 3, 0.00,10.00,WinterDesignDay
9,42745738.14239932
1718,123176710.12553371
2,1,12,21, 0, 3,10.00,20.00,WinterDesignDay
9,45058201.90543662
1718,120333271.4019003
2,1,12,21, 0, 3,20.00,30.00,WinterDesignDay
9,45504022.48859602
1718,127311113.3015729
2,1,12,21, 0, 3,30.00,40.00,WinterDesignDay
9,20518634.5753867
1718,13535093.708088934
2,1,12,21, 0, 3,40.00,50.00,WinterDesignDay
9,42706981.05322947
1718,126396026.35030147
2,1,12,21, 0, 3,50.00,60.00,WinterDesignDay
9,45019596.47070649
1718,127183233.93772967
2,1,12,21, 0, 3, 0.00,60.00,WinterDesignDay
10,241553174.63575464
58,0.0
1044,112521152.67530534
1719,637935448.825127
1767,17312252.683240693
1926,4460142.002390243
3661,1475904.7205680858
3934,31470837.522664517
3969,0.0
4011,566996603.6162412
4046,85565210.59366271
4102,4019677.2
4319,53626592.525645055
4361,187266.8707279285
4414,1852983.0504358741
2,1,12,21, 0, 4, 0.00,10.00,WinterDesignDay
9,45326673.722129725
1718,126411753.20744966
2,1,12,21, 0, 4,10.00,20.00,WinterDesignDay
9,20599682.295460153
1718,4440005.854320626
2,1,12,21, 0, 4,20.00,30.00,WinterDesignDay
9,42735183.33000198
1718,126406972.20772883
2,1,12,21, 0, 4,30.00,40.00,WinterDesignDay
9,44986659.83835236
1718,127186643.04871921
2,1,12,21, 0, 4,40.00,50.00,WinterDesignDay
9,45295898.439049765
1718,127312632.67052971
2,1,12,21, 0, 4,50.00,60.00,WinterDesignDay
9,20473132.46681927
1718,13577128.53556036
2,1,12,21, 0, 4, 0.00,60.00,WinterDesignDay
10,219417230.09181327
58,0.0
1044,112521152.67530534
1719,525335135.52430844
1767,17312252.683240693
1926,4459607.060886252
3661,1475904.7205680858
3934,25176670.018131614
3969,0.0
4011,454257633.3643293
4046,70022037.5034303
4102,4019677.2
4319,53765249.47673845
4361,187280.26071730372
4414,1554900.6527743952
2,1,12,21, 0, 5, 0.00,10.00,WinterDesignDay
9,42784380.099200055
1718,126437288.31403656
2,1,12,21, 0, 5,10.00,20.00,WinterDesignDay
9,45062716.2776451
1718,119701354.11571531
2,1,12,21, 0, 5,20.00,30.00,WinterDesignDay
9,45296773.76997488
1718,124785570.38991548
2,1,12,21, 0, 5,30.00,40.00,WinterDesignDay
9,20501543.648454793
1718,13552793.225491159
2,1,12,21, 0, 5,40.00,50.00,WinterDesignDay
9,42647716.39754227
1718,126394459.37487122
2,1,12,21, 0, 5,50.00,60.00,WinterDesignDay
9,45053709.7403872
1718,127091718.35053879
2,1,12,21, 0, 5, 0.00,60.00,WinterDesignDay
10,241346839.9332043
58,0.0
1044,112521152.67530534
1719,637963183.7705686
1767,17312252.683240693
1926,4629894.195782029
3661,1475904.7205680858
3934,31470837.522664517
3969,0.0
4011,566992776.7142555
4046,85094487.17881328
4102,4019677.2
4319,53658154.3730724
4361,281903.28719351813
4414,1852983.1528775513
2,1,12,21, 0, 6, 0.00,10.00,WinterDesignDay
9,45362181.52789056
1718,127367894.08942202
2,1,12,21, 0, 6,10.00,20.00,WinterDesignDay
9,20499662.110791042
1718,8291840.519398401
2,1,12,21, 0, 6,20.00,30.00,WinterDesignDay
9,42621784.632286236
1718,121705345.84251635
2,1,12,21, 0, 6,30.00,40.00,WinterDesignDay
9,44932529.646051936
1718,127060358.99407323
2,1,12,21, 0, 6,40.00,50.00,WinterDesignDay
9,45324103.76859311
1718,127310887.0292458
2,1,12,21, 0, 6,50.00,60.00,WinterDesignDay
9,20608903.368739925
1718,13672716.842516193
2,1,12,21, 0, 6, 0.00,60.00,WinterDesignDay
10,219349165.05435282
58,0.0
1044,112521152.67530534
1719,525409043.31717193
1767,17312252.683240693
1926,4618428.278890206
3661,1475904.7205680858
3934,25176670.018131614
3969,0.0
4011,454255044.47572064
4046,69702532.51640823
4102,4019677.2
4319,53841746.15821065
4361,279898.9229718059
4414,1554900.7220775543
2,1,12,21, 0, 7, 0.00,10.00,WinterDesignDay
9,43504576.30085464
1718,126412063.55029888
2,1,12,21, 0, 7,10.00,20.00,WinterDesignDay
9,45814128.75781311
1718,124066676.49174619
2,1,12,21, 0, 7,20.00,30.00,WinterDesignDay
9,46128114.05722926
1718,120520683.95457713
2,1,12,21, 0, 7,30.00,40.00,WinterDesignDay
9,21465329.739962276
1718,13425382.702212237
2,1,12,21, 0, 7,40.00,50.00,WinterDesignDay
9,42176341.58371502
1718,126397385.90747783
2,1,12,21, 0, 7,50.00,60.00,WinterDesignDay
9,44361016.86740266
1718,127160767.80616017
2,1,12,21, 0, 7, 0.00,60.00,WinterDesignDay
10,243449507.30697697
58,0.0
1044,112521152.67530534
1719,637982960.4124725
1767,17312252.683240693
1926,5480024.476219205
3661,1475904.7205680858
3934,31470837.522664517
3969,0.0
4011,566989965.7000422
4046,84740599.6074241
4102,5720721.6
4319,53680742.02918956
4361,187283.47672872306
4414,1852983.228067025
2,1,12,21, 0, 8, 0.00,10.00,WinterDesignDay
9,46069998.517847426
1718,146447687.55158886
2,1,12,21, 0, 8,10.00,20.00,WinterDesignDay
9,46095338.46707516
1718,132544361.73052174
2,1,12,21, 0, 8,20.00,30.00,WinterDesignDay
9,46211549.748190895
1718,131252045.03239326
2,1,12,21, 0, 8,30.00,40.00,WinterDesignDay
9,46343903.77415697
1718,133767783.75533183
2,1,12,21, 0, 8,40.00,50.00,WinterDesignDay
9,46257047.66846035
1718,133618542.89211904
2,1,12,21, 0, 8,50.00,60.00,WinterDesignDay
9,46285873.02005856
1718,133442895.99035324
2,1,12,21, 0, 8, 0.00,60.00,WinterDesignDay
10,277263711.19578934
58,0.0
1044,112521152.67530534
1719,811073316.9523079
1767,17312252.683240693
1926,6030627.492226949
3661,1475904.7205680858
3934,50169963.86249089
3969,0.0
4011,739837860.5931154
4046,104727799.11287497
4102,0.0
4319,53923203.675951965
4361,187286.22485514064
4414,2150977.107468033
2,1,12,21, 0, 9, 0.00,10.00,WinterDesignDay
9,31297227.88361131
1718,182550524.83892238
2,1,12,21, 0, 9,10.00,20.00,WinterDesignDay
9,31327406.950988974
1718,182445865.77607256
2,1,12,21, 0, 9,20.00,30.00,WinterDesignDay
9,31458886.407017283