Program Version,EnergyPlus, Version 22.1.0-ed759b17ee, YMD=2022.11.28 22:36
1,5,Environment Title[],Latitude[deg],Longitude[deg],Time Zone[],Elevation[m]
2,8,Day of Simulation[],Month[],Day of Month[],DST Indicator[1=yes 0=no],Hour[],StartMinute[],EndMinute[],DayType
3,5,Cumulative Day of Simulation[],Month[],Day of Month[],DST Indicator[1=yes 0=no],DayType  ! When Daily Report Variables Requested
4,2,Cumulative Days of Simulation[],Month[]  ! When Monthly Report Variables Requested
5,1,Cumulative Days of Simulation[] ! When Run Period Report Variables Requested
6,1,Calendar Year of Simulation[] ! When Annual Report Variables Requested
8,1,Electricity:Facility [J] !TimeStep
1256,1,NaturalGas:Facility [J] !TimeStep
End of Data Dictionary
1,RUN PERIOD 1,  27.85, -82.52,  -5.00,   8.00
2,1, 1, 1, 0, 1, 0.00,10.00,Sunday
8,1593331.360170732
1256,0.0
2,1, 1, 1, 0, 1,10.00,20.00,Sunday
8,1593331.360170732
1256,0.0
2,1, 1, 1, 0, 1,20.00,30.00,Sunday
8,1593331.360170732
1256,0.0
2,1, 1, 1, 0, 1,30.00,40.00,Sunday
8,1593331.360170732
1256,0.0
2,1, 1, 1, 0, 1,40.00,50.00,Sunday
8,1593331.360170732
1256,0.0
2,1, 1, 1, 0, 1,50.00,60.00,Sunday
8,1593331.360170732
1256,0.0
2,1, 1, 1, 0, 2, 0.00,10.00,Sunday
8,1593331.360170732
1256,0.0
2,1, 1, 1, 0, 2,10.00,20.00,Sunday
8,1593331.360170732
1256,0.0
2,1, 1, 1, 0, 2,20.00,30.00,Sunday
8,1593331.360170732
1256,0.0
2,1, 1, 1, 0, 2,30.00,40.00,Sunday
8,1593331.360170732
1256,0.0
2,1, 1, 1, 0, 2,40.00,50.00,Sunday
8,1593331.360170732
1256,0.0
2,1, 1, 1, 0, 2,50.00,60.00,Sunday
8,1593331.360170732
1256,0.0
2,1, 1, 1, 0, 3, 0.00,10.00,Sunday
8,1593331.360170732
1256,0.0
2,1, 1, 1, 0, 3,10.00,20.00,Sunday
8,1593331.360170732
1256,0.0
2,1, 1, 1, 0, 3,20.00,30.00,Sunday
8,1593331.360170732
1256,0.0
2,1, 1, 1, 0, 3,30.00,40.00,Sunday
8,1593331.360170732
1256,0.0
2,1, 1, 1, 0, 3,40.00,50.00,Sunday
8,1593331.360170732
1256,0.0
2,1, 1, 1, 0, 3,50.00,60.00,Sunday
8,1593331.360170732
1256,0.0
2,1, 1, 1, 0, 4, 0.00,10.00,Sunday
8,1593331.360170732
1256,0.0
2,1, 1, 1, 0, 4,10.00,20.00,Sunday
8,1593331.360170732
1256,0.0
2,1, 1, 1, 0, 4,20.00,30.00,Sunday
8,1593331.360170732
1256,0.0
2,1, 1, 1, 0, 4,30.00,40.00,Sunday
8,1593331.360170732
1256,0.0
2,1, 1, 1, 0, 4,40.00,50.00,Sunday
8,1593331.360170732
1256,0.0
2,1, 1, 1, 0, 4,50.00,60.00,Sunday
8,1593331.360170732
1256,0.0
2,1, 1, 1, 0, 5, 0.00,10.00,Sunday
8,1593331.360170732
1256,0.0
2,1, 1, 1, 0, 5,10.00,20.00,Sunday
8,1593331.360170732
1256,0.0
2,1, 1, 1, 0, 5,20.00,30.00,Sunday
8,1593331.360170732
1256,0.0
2,1, 1, 1, 0, 5,30.00,40.00,Sunday
8,1593331.360170732
1256,0.0
2,1, 1, 1, 0, 5,40.00,50.00,Sunday
8,1593331.360170732
1256,0.0
2,1, 1, 1, 0, 5,50.00,60.00,Sunday
8,1593331.360170732
1256,0.0
2,1, 1, 1, 0, 6, 0.00,10.00,Sunday
8,1593331.360170732
1256,0.0
2,1, 1, 1, 0, 6,10.00,20.00,Sunday
8,1593331.360170732
1256,0.0
2,1, 1, 1, 0, 6,20.00,30.00,Sunday
8,1593331.360170732
1256,0.0
2,1, 1, 1, 0, 6,30.00,40.00,Sunday
8,1593331.360170732
1256,0.0
2,1, 1, 1, 0, 6,40.00,50.00,Sunday
8,1593331.360170732
1256,0.0
2,1, 1, 1, 0, 6,50.00,60.00,Sunday
8,1593331.360170732
1256,0.0
2,1, 1, 1, 0, 7, 0.00,10.00,Sunday
8,1778785.360170732
1256,0.0
2,1, 1, 1, 0, 7,10.00,20.00,Sunday
8,1778785.360170732
1256,0.0
2,1, 1, 1, 0, 7,20.00,30.00,Sunday
8,1778785.360170732
1256,0.0
2,1, 1, 1, 0, 7,30.00,40.00,Sunday
8,1778785.360170732
1256,0.0
2,1, 1, 1, 0, 7,40.00,50.00,Sunday
8,1778785.360170732
1256,0.0
2,1, 1, 1, 0, 7,50.00,60.00,Sunday
8,1778785.360170732
1256,0.0
2,1, 1, 1, 0, 8, 0.00,10.00,Sunday
8,1778785.360170732
1256,0.0
2,1, 1, 1, 0, 8,10.00,20.00,Sunday
8,1778785.360170732
1256,0.0
2,1, 1, 1, 0, 8,20.00,30.00,Sunday
8,1231585.3601707318
1256,0.0
2,1, 1, 1, 0, 8,30.00,40.00,Sunday
8,1231585.3601707318
1256,0.0
2,1, 1, 1, 0, 8,40.00,50.00,Sunday
8,1231585.3601707318
1256,0.0
2,1, 1, 1, 0, 8,50.00,60.00,Sunday
8,1231585.3601707318
1256,0.0
2,1, 1, 1, 0, 9, 0.00,10.00,Sunday
8,1231585.3601707318
1256,0.0
2,1, 1, 1, 0, 9,10.00,20.00,Sunday
8,1231585.3601707318
1256,0.0
2,1, 1, 1, 0, 9,20.00,30.00,Sunday
8,1231585.3601707318
1256,0.0
2,1, 1, 1, 0, 9,30.00,40.00,Sunday
8,1231585.3601707318
1256,0.0
2,1, 1, 1, 0, 9,40.00,50.00,Sunday
8,1231585.3601707318
1256,0.0
2,1, 1, 1, 0, 9,50.00,60.00,Sunday
8,1231585.3601707318
1256,0.0
2,1, 1, 1, 0,10, 0.00,10.00,Sunday
8,1231585.3601707318
1256,0.0
2,1, 1, 1, 0,10,10.00,20.00,Sunday
8,1231585.3601707318
1256,0.0
2,1, 1, 1, 0,10,20.00,30.00,Sunday
8,1231585.3601707318
1256,0.0
2,1, 1, 1, 0,10,30.00,40.00,Sunday
8,1231585.3601707318
1256,0.0
2,1, 1, 1, 0,10,40.00,50.00,Sunday
8,1231585.3601707318
1256,0.0
2,1, 1, 1, 0,10,50.00,60.00,Sunday
8,1231585.3601707318
1256,0.0
2,1, 1, 1, 0,11, 0.00,10.00,Sunday
8,2482364.230320396
1256,0.0
2,1, 1, 1, 0,11,10.00,20.00,Sunday
8,1231585.3601707318
1256,0.0
2,1, 1, 1, 0,11,20.00,30.00,Sunday
8,1231585.3601707318
1256,0.0
2,1, 1, 1, 0,11,30.00,40.00,Sunday
8,1231585.3601707318
1256,0.0
2,1, 1, 1, 0,11,40.00,50.00,Sunday
8,1231585.3601707318
1256,0.0
2,1, 1, 1, 0,11,50.00,60.00,Sunday
8,1231585.3601707318
1256,0.0
2,1, 1, 1, 0,12, 0.00,10.00,Sunday
8,1231585.3601707318
1256,0.0
2,1, 1, 1, 0,12,10.00,20.00,Sunday
8,1231585.3601707318
1256,0.0
2,1, 1, 1, 0,12,20.00,30.00,Sunday
8,1231585.3601707318
1256,0.0
2,1, 1, 1, 0,12,30.00,40.00,Sunday
8,1231585.3601707318
1256,0.0
2,1, 1, 1, 0,12,40.00,50.00,Sunday
8,1231585.3601707318
1256,0.0
2,1, 1, 1, 0,12,50.00,60.00,Sunday
8,1231585.3601707318
1256,0.0
2,1, 1, 1, 0,13, 0.00,10.00,Sunday
8,1231585.3601707318
1256,0.0
2,1, 1, 1, 0,13,10.00,20.00,Sunday
8,1231585.3601707318
1256,0.0
2,1, 1, 1, 0,13,20.00,30.00,Sunday
8,1231585.3601707318
1256,0.0
2,1, 1, 1, 0,13,30.00,40.00,Sunday
8,1231585.3601707318
1256,0.0
2,1, 1, 1, 0,13,40.00,50.00,Sunday
8,1231585.3601707318
1256,0.0
2,1, 1, 1, 0,13,50.00,60.00,Sunday
8,1231585.3601707318
1256,0.0
2,1, 1, 1, 0,14, 0.00,10.00,Sunday
8,1231585.3601707318
1256,0.0
2,1, 1, 1, 0,14,10.00,20.00,Sunday
8,1231585.3601707318
1256,0.0
2,1, 1, 1, 0,14,20.00,30.00,Sunday
8,1231585.3601707318
1256,0.0
2,1, 1, 1, 0,14,30.00,40.00,Sunday
8,1231585.3601707318
1256,0.0
2,1, 1, 1, 0,14,40.00,50.00,Sunday
8,1231585.3601707318
1256,0.0
2,1, 1, 1, 0,14,50.00,60.00,Sunday
8,1231585.3601707318
1256,0.0
2,1, 1, 1, 0,15, 0.00,10.00,Sunday
8,1231585.3601707318
1256,0.0
2,1, 1, 1, 0,15,10.00,20.00,Sunday
8,1231585.3601707318
1256,0.0
2,1, 1, 1, 0,15,20.00,30.00,Sunday
8,1231585.3601707318
1256,0.0
2,1, 1, 1, 0,15,30.00,40.00,Sunday
8,1231585.3601707318
1256,0.0
2,1, 1, 1, 0,15,40.00,50.00,Sunday
8,1231585.3601707318
1256,0.0
2,1, 1, 1, 0,15,50.00,60.00,Sunday
8,1231585.3601707318
1256,0.0
2,1, 1, 1, 0,16, 0.00,10.00,Sunday
8,1231585.3601707318
1256,0.0
2,1, 1, 1, 0,16,10.00,20.00,Sunday
8,1231585.3601707318
1256,0.0
2,1, 1, 1, 0,16,20.00,30.00,Sunday
8,1231585.3601707318
1256,0.0
2,1, 1, 1, 0,16,30.00,40.00,Sunday
8,1231585.3601707318
1256,0.0
2,1, 1, 1, 0,16,40.00,50.00,Sunday
8,1231585.3601707318
1256,0.0
2,1, 1, 1, 0,16,50.00,60.00,Sunday
8,1231585.3601707318
1256,0.0
2,1, 1, 1, 0,17, 0.00,10.00,Sunday
8,1231585.3601707318
1256,0.0
2,1, 1, 1, 0,17,10.00,20.00,Sunday
8,1231585.3601707318
1256,0.0
2,1, 1, 1, 0,17,20.00,30.00,Sunday
8,1231585.3601707318
1256,0.0
2,1, 1, 1, 0,17,30.00,40.00,Sunday
8,1231585.3601707318
1256,0.0
2,1, 1, 1, 0,17,40.00,50.00,Sunday
8,1231585.3601707318
1256,0.0
2,1, 1, 1, 0,17,50.00,60.00,Sunday
8,1231585.3601707318
1256,0.0
2,1, 1, 1, 0,18, 0.00,10.00,Sunday
8,1231585.3601707318
1256,0.0
2,1, 1, 1, 0,18,10.00,20.00,Sunday
8,1231585.3601707318
1256,0.0
2,1, 1, 1, 0,18,20.00,30.00,Sunday
8,1231585.3601707318
1256,0.0
2,1, 1, 1, 0,18,30.00,40.00,Sunday
8,1231585.3601707318
1256,0.0
2,1, 1, 1, 0,18,40.00,50.00,Sunday
8,1778785.360170732
1256,0.0
2,1, 1, 1, 0,18,50.00,60.00,Sunday
8,1778785.360170732
1256,0.0
2,1, 1, 1, 0,19, 0.00,10.00,Sunday
8,1778785.360170732
1256,0.0
2,1, 1, 1, 0,19,10.00,20.00,Sunday
8,1778785.360170732
1256,0.0
2,1, 1, 1, 0,19,20.00,30.00,Sunday
8,1778785.360170732
1256,0.0
2,1, 1, 1, 0,19,30.00,40.00,Sunday
8,1778785.360170732
1256,0.0
2,1, 1, 1, 0,19,40.00,50.00,Sunday
8,1778785.360170732
1256,0.0
2,1, 1, 1, 0,19,50.00,60.00,Sunday
8,1778785.360170732
1256,0.0
2,1, 1, 1, 0,20, 0.00,10.00,Sunday
8,1778785.360170732
1256,0.0
2,1, 1, 1, 0,20,10.00,20.00,Sunday
8,1778785.360170732
1256,0.0
2,1, 1, 1, 0,20,20.00,30.00,Sunday
8,1778785.360170732
1256,0.0
2,1, 1, 1, 0,20,30.00,40.00,Sunday
8,1778785.360170732
1256,0.0
2,1, 1, 1, 0,20,40.00,50.00,Sunday
8,1778785.360170732
1256,0.0
2,1, 1, 1, 0,20,50.00,60.00,Sunday
8,1778785.360170732
1256,0.0
2,1, 1, 1, 0,21, 0.00,10.00,Sunday
8,1778785.360170732
1256,0.0
2,1, 1, 1, 0,21,10.00,20.00,Sunday
8,3029484.1140534626
1256,0.0
2,1, 1, 1, 0,21,20.00,30.00,Sunday
8,1778785.360170732
1256,0.0
2,1, 1, 1, 0,21,30.00,40.00,Sunday
8,1778785.360170732
1256,0.0
2,1, 1, 1, 0,21,40.00,50.00,Sunday
8,1778785.360170732
1256,0.0
2,1, 1, 1, 0,21,50.00,60.00,Sunday
8,1778785.360170732
1256,0.0
2,1, 1, 1, 0,22, 0.00,10.00,Sunday
8,1778785.360170732
1256,0.0
2,1, 1, 1, 0,22,10.00,20.00,Sunday
8,1778785.360170732
1256,0.0
2,1, 1, 1, 0,22,20.00,30.00,Sunday
8,1778785.360170732
1256,0.0
2,1, 1, 1, 0,22,30.00,40.00,Sunday
8,1778785.360170732
1256,0.0
2,1, 1, 1, 0,22,40.00,50.00,Sunday
8,1778785.360170732
1256,0.0
2,1, 1, 1, 0,22,50.00,60.00,Sunday
8,1778785.360170732
1256,0.0
2,1, 1, 1, 0,23, 0.00,10.00,Sunday
8,1778785.360170732
1256,0.0
2,1, 1, 1, 0,23,10.00,20.00,Sunday
8,1778785.360170732
1256,0.0
2,1, 1, 1, 0,23,20.00,30.00,Sunday
8,1778785.360170732
1256,0.0
2,1, 1, 1, 0,23,30.00,40.00,Sunday
8,1778785.360170732
1256,0.0
2,1, 1, 1, 0,23,40.00,50.00,Sunday
8,1778785.360170732
1256,0.0
2,1, 1, 1, 0,23,50.00,60.00,Sunday
8,1778785.360170732
1256,0.0
2,1, 1, 1, 0,24, 0.00,10.00,Sunday
8,1778785.360170732
1256,0.0
2,1, 1, 1, 0,24,10.00,20.00,Sunday
8,1778785.360170732
1256,0.0
2,1, 1, 1, 0,24,20.00,30.00,Sunday
8,1778785.360170732
1256,0.0
2,1, 1, 1, 0,24,30.00,40.00,Sunday
8,1778785.360170732
1256,0.0
2,1, 1, 1, 0,24,40.00,50.00,Sunday
8,1778785.360170732
1256,0.0
2,1, 1, 1, 0,24,50.00,60.00,Sunday
8,1778785.360170732
1256,0.0
2,2, 1, 2, 0, 1, 0.00,10.00,Monday
8,2124610.0961490157
1256,0.0
2,2, 1, 2, 0, 1,10.00,20.00,Monday
8,2124610.0961490157
1256,0.0
2,2, 1, 2, 0, 1,20.00,30.00,Monday
8,2124610.0961490157
1256,0.0
2,2, 1, 2, 0, 1,30.00,40.00,Monday
8,2124610.0961490157
1256,0.0
2,2, 1, 2, 0, 1,40.00,50.00,Monday
8,2124610.0961490157
1256,0.0
2,2, 1, 2, 0, 1,50.00,60.00,Monday
8,2124610.0961490157
1256,0.0
2,2, 1, 2, 0, 2, 0.00,10.00,Monday
8,2124610.0961490157
1256,0.0
2,2, 1, 2, 0, 2,10.00,20.00,Monday
8,2124610.0961490157
1256,0.0
2,2, 1, 2, 0, 2,20.00,30.00,Monday
8,2124610.0961490157
1256,0.0
2,2, 1, 2, 0, 2,30.00,40.00,Monday
8,2124610.0961490157
1256,0.0
2,2, 1, 2, 0, 2,40.00,50.00,Monday
8,2124610.0961490157
1256,0.0
2,2, 1, 2, 0, 2,50.00,60.00,Monday
8,2124610.0961490157
1256,0.0
2,2, 1, 2, 0, 3, 0.00,10.00,Monday
8,2124610.0961490157
1256,0.0
2,2, 1, 2, 0, 3,10.00,20.00,Monday
8,2124610.0961490157
1256,0.0
2,2, 1, 2, 0, 3,20.00,30.00,Monday
8,2124610.0961490157
1256,0.0
2,2, 1, 2, 0, 3,30.00,40.00,Monday
8,2124610.0961490157
1256,0.0
2,2, 1, 2, 0, 3,40.00,50.00,Monday
8,2124610.0961490157
1256,0.0
2,2, 1, 2, 0, 3,50.00,60.00,Monday
8,2124610.0961490157
1256,0.0
2,2, 1, 2, 0, 4, 0.00,10.00,Monday
8,2124610.0961490157
1256,0.0
2,2, 1, 2, 0, 4,10.00,20.00,Monday
8,2124610.0961490157
1256,0.0
2,2, 1, 2, 0, 4,20.00,30.00,Monday
8,2124610.0961490157
1256,0.0
2,2, 1, 2, 0, 4,30.00,40.00,Monday
8,2124610.0961490157
1256,0.0
2,2, 1, 2, 0, 4,40.00,50.00,Monday
8,2124610.0961490157
1256,0.0
2,2, 1, 2, 0, 4,50.00,60.00,Monday
8,2124610.0961490157
1256,0.0
2,2, 1, 2, 0, 5, 0.00,10.00,Monday
8,2124610.0961490157
1256,0.0
2,2, 1, 2, 0, 5,10.00,20.00,Monday
8,2124610.0961490157
1256,0.0
2,2, 1, 2, 0, 5,20.00,30.00,Monday
8,2124610.0961490157
1256,0.0
2,2, 1, 2, 0, 5,30.00,40.00,Monday
8,2124610.0961490157
1256,0.0
2,2, 1, 2, 0, 5,40.00,50.00,Monday
8,2124610.0961490157
1256,0.0
2,2, 1, 2, 0, 5,50.00,60.00,Monday
8,2124610.0961490157
1256,0.0
2,2, 1, 2, 0, 6, 0.00,10.00,Monday
8,2273165.512634849
1256,0.0
2,2, 1, 2, 0, 6,10.00,20.00,Monday
8,2273165.512634849
1256,0.0
2,2, 1, 2, 0, 6,20.00,30.00,Monday
8,2273165.512634849
1256,0.0
2,2, 1, 2, 0, 6,30.00,40.00,Monday
8,2273165.512634849
1256,0.0
2,2, 1, 2, 0, 6,40.00,50.00,Monday
8,2273165.512634849
1256,0.0
2,2, 1, 2, 0, 6,50.00,60.00,Monday
8,2273165.512634849
1256,0.0
2,2, 1, 2, 0, 7, 0.00,10.00,Monday
8,8117080.529288422
1256,0.0
2,2, 1, 2, 0, 7,10.00,20.00,Monday
8,8371090.401161672
1256,0.0
2,2, 1, 2, 0, 7,20.00,30.00,Monday
8,9217807.51185523
1256,0.0
2,2, 1, 2, 0, 7,30.00,40.00,Monday
8,7784657.628124231
1256,0.0
2,2, 1, 2, 0, 7,40.00,50.00,Monday
8,7592702.661788911
1256,0.0
2,2, 1, 2, 0, 7,50.00,60.00,Monday
8,7351468.072132298
1256,0.0
2,2, 1, 2, 0, 8, 0.00,10.00,Monday
8,7540253.0880672205
1256,0.0
2,2, 1, 2, 0, 8,10.00,20.00,Monday
8,7417223.950900137
1256,0.0
2,2, 1, 2, 0, 8,20.00,30.00,Monday
8,6766451.749200298
1256,0.0
2,2, 1, 2, 0, 8,30.00,40.00,Monday
8,6685743.595346857
1256,0.0
2,2, 1, 2, 0, 8,40.00,50.00,Monday
8,6618387.979608663
1256,0.0
2,2, 1, 2, 0, 8,50.00,60.00,Monday
8,6554969.107004393
1256,0.0
2,2, 1, 2, 0, 9, 0.00,10.00,Monday
8,9173571.687714895
1256,0.0
2,2, 1, 2, 0, 9,10.00,20.00,Monday
8,10471778.373663176
1256,0.0
2,2, 1, 2, 0, 9,20.00,30.00,Monday
8,9180578.68273489
1256,0.0
2,2, 1, 2, 0, 9,30.00,40.00,Monday
8,9216591.992410641
1256,0.0
2,2, 1, 2, 0, 9,40.00,50.00,Monday
8,9252948.320228193
1256,0.0
2,2, 1, 2, 0, 9,50.00,60.00,Monday
8,9295851.780572826
1256,0.0
2,2, 1, 2, 0,10, 0.00,10.00,Monday
8,9331380.077433309
1256,0.0
2,2, 1, 2, 0,10,10.00,20.00,Monday
8,10683242.843807653
1256,0.0
2,2, 1, 2, 0,10,20.00,30.00,Monday
8,9430147.866732597
1256,0.0
2,2, 1, 2, 0,10,30.00,40.00,Monday
8,9431205.311391445
1256,0.0
2,2, 1, 2, 0,10,40.00,50.00,Monday
8,9418794.248850161
1256,0.0
2,2, 1, 2, 0,10,50.00,60.00,Monday
8,10718196.476925587
1256,0.0
2,2, 1, 2, 0,11, 0.00,10.00,Monday
8,9441682.082247578
1256,0.0
2,2, 1, 2, 0,11,10.00,20.00,Monday
8,9448215.35000375
1256,0.0
2,2, 1, 2, 0,11,20.00,30.00,Monday
8,9462211.442946821
1256,0.0
2,2, 1, 2, 0,11,30.00,40.00,Monday
8,9508015.828181267
1256,0.0
2,2, 1, 2, 0,11,40.00,50.00,Monday
8,10849843.641652495
1256,0.0
2,2, 1, 2, 0,11,50.00,60.00,Monday
8,9599563.728282033
1256,0.0
2,2, 1, 2, 0,12, 0.00,10.00,Monday
8,9633924.12272382
1256,0.0
2,2, 1, 2, 0,12,10.00,20.00,Monday
8,9653796.70840179
1256,0.0
2,2, 1, 2, 0,12,20.00,30.00,Monday
8,10983553.411848849
1256,0.0
2,2, 1, 2, 0,12,30.00,40.00,Monday
8,9664855.91330994
1256,0.0
2,2, 1, 2, 0,12,40.00,50.00,Monday
8,9657273.657063045
1256,0.0
2,2, 1, 2, 0,12,50.00,60.00,Monday
8,9639591.298927762
1256,0.0
2,2, 1, 2, 0,13, 0.00,10.00,Monday
8,10522630.034846926
1256,0.0
2,2, 1, 2, 0,13,10.00,20.00,Monday
8,9201610.23654297
1256,0.0
2,2, 1, 2, 0,13,20.00,30.00,Monday
8,9195998.460358655
1256,0.0
2,2, 1, 2, 0,13,30.00,40.00,Monday
8,10553807.6223073
1256,0.0
2,2, 1, 2, 0,13,40.00,50.00,Monday
8,9265573.051466422
1256,0.0
2,2, 1, 2, 0,13,50.00,60.00,Monday
8,9286001.189200781
1256,0.0
2,2, 1, 2, 0,14, 0.00,10.00,Monday
8,11059847.53041684
1256,0.0
2,2, 1, 2, 0,14,10.00,20.00,Monday
8,9738916.245172707
1256,0.0
2,2, 1, 2, 0,14,20.00,30.00,Monday
8,9737355.250486027
1256,0.0
2,2, 1, 2, 0,14,30.00,40.00,Monday
8,9716857.544136452
1256,0.0
2,2, 1, 2, 0,14,40.00,50.00,Monday
8,10964579.990054522
1256,0.0
2,2, 1, 2, 0,14,50.00,60.00,Monday
8,9597375.798081988
1256,0.0
2,2, 1, 2, 0,15, 0.00,10.00,Monday
8,9564752.258975381
1256,0.0
2,2, 1, 2, 0,15,10.00,20.00,Monday
8,9513713.609695317
1256,0.0
2,2, 1, 2, 0,15,20.00,30.00,Monday
8,10754800.162074113
1256,0.0
2,2, 1, 2, 0,15,30.00,40.00,Monday
8,9461947.104875844
1256,0.0
2,2, 1, 2, 0,15,40.00,50.00,Monday
8,9459933.496436665
1256,0.0
2,2, 1, 2, 0,15,50.00,60.00,Monday
8,9457458.126038095
1256,0.0
2,2, 1, 2, 0,16, 0.00,10.00,Monday
8,9422598.254830128
1256,0.0
2,2, 1, 2, 0,16,10.00,20.00,Monday
8,9388095.827212658
1256,0.0
2,2, 1, 2, 0,16,20.00,30.00,Monday
8,10644242.676637126
1256,0.0
2,2, 1, 2, 0,16,30.00,40.00,Monday
8,9359588.374578832
1256,0.0
2,2, 1, 2, 0,16,40.00,50.00,Monday
8,9369956.288443238
1256,0.0
2,2, 1, 2, 0,16,50.00,60.00,Monday
8,9381995.829965012
1256,0.0
2,2, 1, 2, 0,17, 0.00,10.00,Monday
8,9396264.167593388
1256,0.0
2,2, 1, 2, 0,17,10.00,20.00,Monday
8,10731868.019862732
1256,0.0
2,2, 1, 2, 0,17,20.00,30.00,Monday
8,9444029.523590103
1256,0.0
2,2, 1, 2, 0,17,30.00,40.00,Monday
8,9405562.895951115
1256,0.0
2,2, 1, 2, 0,17,40.00,50.00,Monday
8,9366719.140453408
1256,0.0
2,2, 1, 2, 0,17,50.00,60.00,Monday
8,10630937.262523323
1256,0.0
2,2, 1, 2, 0,18, 0.00,10.00,Monday
8,7210456.2663551895
1256,0.0
2,2, 1, 2, 0,18,10.00,20.00,Monday
8,7068587.302666885
1256,0.0
2,2, 1, 2, 0,18,20.00,30.00,Monday
8,6921851.136615345
1256,0.0
2,2, 1, 2, 0,18,30.00,40.00,Monday
8,6812024.869045884
1256,0.0
2,2, 1, 2, 0,18,40.00,50.00,Monday
8,7205442.4583074
1256,0.0
2,2, 1, 2, 0,18,50.00,60.00,Monday
8,7112229.021513873
1256,0.0
2,2, 1, 2, 0,19, 0.00,10.00,Monday
8,4765297.983578948
1256,0.0
2,2, 1, 2, 0,19,10.00,20.00,Monday
8,3487967.409887875
1256,0.0
2,2, 1, 2, 0,19,20.00,30.00,Monday
8,3487967.409887875
1256,0.0
2,2, 1, 2, 0,19,30.00,40.00,Monday
8,3487967.409887875
1256,0.0
2,2, 1, 2, 0,19,40.00,50.00,Monday
8,3487967.409887875
1256,0.0
2,2, 1, 2, 0,19,50.00,60.00,Monday
8,3487967.409887875
1256,0.0
2,2, 1, 2, 0,20, 0.00,10.00,Monday
8,2307897.2668457753
1256,0.0
2,2, 1, 2, 0,20,10.00,20.00,Monday
8,2307897.2668457753
1256,0.0
2,2, 1, 2, 0,20,20.00,30.00,Monday
8,2307897.2668457753
1256,0.0
2,2, 1, 2, 0,20,30.00,40.00,Monday
8,2307897.2668457753
1256,0.0
2,2, 1, 2, 0,20,40.00,50.00,Monday
8,3571608.842117777
1256,0.0
2,2, 1, 2, 0,20,50.00,60.00,Monday
8,2307897.2668457753
1256,0.0
2,2, 1, 2, 0,21, 0.00,10.00,Monday
8,2066257.0263904112
1256,0.0
2,2, 1, 2, 0,21,10.00,20.00,Monday
8,2066257.0263904112
1256,0.0
2,2, 1, 2, 0,21,20.00,30.00,Monday
8,2066257.0263904112
1256,0.0
2,2, 1, 2, 0,21,30.00,40.00,Monday
8,2066257.0263904112
1256,0.0
2,2, 1, 2, 0,21,40.00,50.00,Monday
8,2066257.0263904112
1256,0.0
2,2, 1, 2, 0,21,50.00,60.00,Monday
8,2066257.0263904112
1256,0.0
2,2, 1, 2, 0,22, 0.00,10.00,Monday
8,2066257.0263892289
1256,0.0
2,2, 1, 2, 0,22,10.00,20.00,Monday
8,2066257.0263892289
1256,0.0
2,2, 1, 2, 0,22,20.00,30.00,Monday
8,2066257.0263892289
1256,0.0
2,2, 1, 2, 0,22,30.00,40.00,Monday
8,2066257.0263892289
1256,0.0
2,2, 1, 2, 0,22,40.00,50.00,Monday
8,2066257.0263892289
1256,0.0
2,2, 1, 2, 0,22,50.00,60.00,Monday
8,3323584.040705555
1256,0.0
2,2, 1, 2, 0,23, 0.00,10.00,Monday
8,1848780.8099780276
1256,0.0
2,2, 1, 2, 0,23,10.00,20.00,Monday
8,1848780.8099780276
1256,0.0
2,2, 1, 2, 0,23,20.00,30.00,Monday
8,1848780.8099780276
1256,0.0
2,2, 1, 2, 0,23,30.00,40.00,Monday
8,1848780.8099780276
1256,0.0
2,2, 1, 2, 0,23,40.00,50.00,Monday
8,1848780.8099780276
1256,0.0
2,2, 1, 2, 0,23,50.00,60.00,Monday
8,1848780.8099780276
1256,0.0
2,2, 1, 2, 0,24, 0.00,10.00,Monday
8,1778785.360170732
1256,0.0
2,2, 1, 2, 0,24,10.00,20.00,Monday
8,1778785.360170732
1256,0.0
2,2, 1, 2, 0,24,20.00,30.00,Monday
8,1778785.360170732
1256,0.0
2,2, 1, 2, 0,24,30.00,40.00,Monday
8,1778785.360170732
1256,0.0
2,2, 1, 2, 0,24,40.00,50.00,Monday
8,1778785.360170732
1256,0.0
2,2, 1, 2, 0,24,50.00,60.00,Monday
8,1778785.360170732
1256,0.0
2,3, 1, 3, 0, 1, 0.00,10.00,Tuesday
8,2124610.0961490157
1256,0.0
2,3, 1, 3, 0, 1,10.00,20.00,Tuesday
8,2124610.0961490157
1256,0.0
2,3, 1, 3, 0, 1,20.00,30.00,Tuesday
8,2124610.0961490157
1256,0.0
2,3, 1, 3, 0, 1,30.00,40.00,Tuesday
8,2124610.0961490157
1256,0.0
2,3, 1, 3, 0, 1,40.00,50.00,Tuesday
8,2124610.0961490157
1256,0.0
2,3, 1, 3, 0, 1,50.00,60.00,Tuesday
8,2124610.0961490157
1256,0.0
2,3, 1, 3, 0, 2, 0.00,10.00,Tuesday
8,2124610.0961490157
1256,0.0
2,3, 1, 3, 0, 2,10.00,20.00,Tuesday
8,2124610.0961490157
1256,0.0
2,3, 1, 3, 0, 2,20.00,30.00,Tuesday
8,2124610.0961490157
1256,0.0
2,3, 1, 3, 0, 2,30.00,40.00,Tuesday
8,2124610.0961490157
1256,0.0
2,3, 1, 3, 0, 2,40.00,50.00,Tuesday
8,2124610.0961490157
1256,0.0
2,3, 1, 3, 0, 2,50.00,60.00,Tuesday
8,2124610.0961490157
1256,0.0
2,3, 1, 3, 0, 3, 0.00,10.00,Tuesday
8,2124610.0961490157
1256,0.0
2,3, 1, 3, 0, 3,10.00,20.00,Tuesday
8,2124610.0961490157
1256,0.0
2,3, 1, 3, 0, 3,20.00,30.00,Tuesday
8,2124610.0961490157
1256,0.0
2,3, 1, 3, 0, 3,30.00,40.00,Tuesday
8,2124610.0961490157
1256,0.0
2,3, 1, 3, 0, 3,40.00,50.00,Tuesday
8,2124610.0961490157
1256,0.0
2,3, 1, 3, 0, 3,50.00,60.00,Tuesday
8,2124610.0961490157
1256,0.0
2,3, 1, 3, 0, 4, 0.00,10.00,Tuesday
8,2124610.0961490157
1256,0.0
2,3, 1, 3, 0, 4,10.00,20.00,Tuesday
8,2124610.0961490157
1256,0.0
2,3, 1, 3, 0, 4,20.00,30.00,Tuesday
8,2124610.0961490157
1256,0.0
2,3, 1, 3, 0, 4,30.00,40.00,Tuesday
8,2124610.0961490157
1256,0.0
2,3, 1, 3, 0, 4,40.00,50.00,Tuesday
8,2124610.0961490157
1256,0.0
2,3, 1, 3, 0, 4,50.00,60.00,Tuesday
8,2124610.0961490157
1256,0.0
2,3, 1, 3, 0, 5, 0.00,10.00,Tuesday
8,2124610.0961490157
1256,0.0
2,3, 1, 3, 0, 5,10.00,20.00,Tuesday
8,2124610.0961490157
1256,0.0
2,3, 1, 3, 0, 5,20.00,30.00,Tuesday
8,2124610.0961490157
1256,0.0
2,3, 1, 3, 0, 5,30.00,40.00,Tuesday
8,2124610.0961490157
1256,0.0
2,3, 1, 3, 0, 5,40.00,50.00,Tuesday
8,2274610.0961490157
1256,0.0
2,3, 1, 3, 0, 5,50.00,60.00,Tuesday
8,2274610.0961490157
1256,0.0
2,3, 1, 3, 0, 6, 0.00,10.00,Tuesday
8,2423165.512634849
1256,0.0
2,3, 1, 3, 0, 6,10.00,20.00,Tuesday
8,2423165.512634849
1256,0.0
2,3, 1, 3, 0, 6,20.00,30.00,Tuesday
8,2423165.512634849
1256,0.0
2,3, 1, 3, 0, 6,30.00,40.00,Tuesday
8,2423165.512634849
1256,0.0
2,3, 1, 3, 0, 6,40.00,50.00,Tuesday
8,2423165.512634849
1256,0.0
2,3, 1, 3, 0, 6,50.00,60.00,Tuesday
8,2423165.512634849
1256,0.0
2,3, 1, 3, 0, 7, 0.00,10.00,Tuesday
8,4834495.048471188
1256,0.0
2,3, 1, 3, 0, 7,10.00,20.00,Tuesday
8,4518145.012683015
1256,0.0
2,3, 1, 3, 0, 7,20.00,30.00,Tuesday
8,4464637.357791866
1256,0.0
2,3, 1, 3, 0, 7,30.00,40.00,Tuesday
8,4245700.38595943
1256,0.0
2,3, 1, 3, 0, 7,40.00,50.00,Tuesday
8,4215261.485702613
1256,0.0
2,3, 1, 3, 0, 7,50.00,60.00,Tuesday
8,4176768.152085179
1256,0.0
2,3, 1, 3, 0, 8, 0.00,10.00,Tuesday
8,5897666.328400322
1256,0.0
2,3, 1, 3, 0, 8,10.00,20.00,Tuesday
8,4615132.5282072155
1256,0.0
2,3, 1, 3, 0, 8,20.00,30.00,Tuesday
8,4062454.4385906574
1256,0.0
2,3, 1, 3, 0, 8,30.00,40.00,Tuesday
8,4103206.4674357786
1256,0.0
2,3, 1, 3, 0, 8,40.00,50.00,Tuesday
8,4105875.350073955
1256,0.0
2,3, 1, 3, 0, 8,50.00,60.00,Tuesday
8,4122433.413018209
1256,0.0
2,3, 1, 3, 0, 9, 0.00,10.00,Tuesday
8,6531421.470953148
1256,0.0
2,3, 1, 3, 0, 9,10.00,20.00,Tuesday
8,6617900.342808277
1256,0.0
2,3, 1, 3, 0, 9,20.00,30.00,Tuesday
8,7899897.039817098
1256,0.0
2,3, 1, 3, 0, 9,30.00,40.00,Tuesday
8,6657683.662592348
1256,0.0
2,3, 1, 3, 0, 9,40.00,50.00,Tuesday
8,6701189.861878935
1256,0.0
2,3, 1, 3, 0, 9,50.00,60.00,Tuesday
8,6740718.0259554535
1256,0.0
2,3, 1, 3, 0,10, 0.00,10.00,Tuesday
8,6798180.971102725
1256,0.0
2,3, 1, 3, 0,10,10.00,20.00,Tuesday
8,8151828.416409438
1256,0.0
2,3, 1, 3, 0,10,20.00,30.00,Tuesday
8,6909161.133695592
1256,0.0
2,3, 1, 3, 0,10,30.00,40.00,Tuesday
8,6962378.198251165
1256,0.0
2,3, 1, 3, 0,10,40.00,50.00,Tuesday
8,7014994.86118523
1256,0.0
2,3, 1, 3, 0,10,50.00,60.00,Tuesday
8,7066374.936404405
1256,0.0
2,3, 1, 3, 0,11, 0.00,10.00,Tuesday
8,8409607.870293958
1256,0.0
2,3, 1, 3, 0,11,10.00,20.00,Tuesday
8,7156022.8622643445
1256,0.0
2,3, 1, 3, 0,11,20.00,30.00,Tuesday
8,7194298.463612602
1256,0.0
2,3, 1, 3, 0,11,30.00,40.00,Tuesday
8,7223501.460076809
1256,0.0
2,3, 1, 3, 0,11,40.00,50.00,Tuesday
8,8548981.327648059
1256,0.0
2,3, 1, 3, 0,11,50.00,60.00,Tuesday
8,7277853.061002411
1256,0.0
2,3, 1, 3, 0,12, 0.00,10.00,Tuesday
8,7299471.221864038
1256,0.0
2,3, 1, 3, 0,12,10.00,20.00,Tuesday
8,7320943.319411898
1256,0.0
2,3, 1, 3, 0,12,20.00,30.00,Tuesday
8,8653749.037293892
1256,0.0
2,3, 1, 3, 0,12,30.00,40.00,Tuesday
8,7367983.612919519
1256,0.0
2,3, 1, 3, 0,12,40.00,50.00,Tuesday
8,7388669.7139508305
1256,0.0
2,3, 1, 3, 0,12,50.00,60.00,Tuesday
8,7412892.06529281
1256,0.0
2,3, 1, 3, 0,13, 0.00,10.00,Tuesday
8,8049419.550291152
1256,0.0
2,3, 1, 3, 0,13,10.00,20.00,Tuesday
8,6728406.708792584
1256,0.0
2,3, 1, 3, 0,13,20.00,30.00,Tuesday
8,6732703.046203052
1256,0.0
2,3, 1, 3, 0,13,30.00,40.00,Tuesday
8,8056103.62613121
1256,0.0
2,3, 1, 3, 0,13,40.00,50.00,Tuesday
8,6726497.48798287
1256,0.0
2,3, 1, 3, 0,13,50.00,60.00,Tuesday
8,6721083.566144648
1256,0.0
2,3, 1, 3, 0,14, 0.00,10.00,Tuesday
8,7686790.116104172
1256,0.0
2,3, 1, 3, 0,14,10.00,20.00,Tuesday
8,8496674.990812695
1256,0.0
2,3, 1, 3, 0,14,20.00,30.00,Tuesday
8,7451078.657265062
1256,0.0
2,3, 1, 3, 0,14,30.00,40.00,Tuesday
8,7475210.738726888
1256,0.0
2,3, 1, 3, 0,14,40.00,50.00,Tuesday
8,8818656.74469926
1256,0.0
2,3, 1, 3, 0,14,50.00,60.00,Tuesday
8,7527134.219328913
1256,0.0
2,3, 1, 3, 0,15, 0.00,10.00,Tuesday
8,7529490.712297227
1256,0.0
2,3, 1, 3, 0,15,10.00,20.00,Tuesday
8,7531898.539484376
1256,0.0
2,3, 1, 3, 0,15,20.00,30.00,Tuesday
8,7534219.035396942
1256,0.0
2,3, 1, 3, 0,15,30.00,40.00,Tuesday
8,8802496.914477294
1256,0.0
2,3, 1, 3, 0,15,40.00,50.00,Tuesday
8,7487064.393189014
1256,0.0
2,3, 1, 3, 0,15,50.00,60.00,Tuesday
8,7456648.151116296
1256,0.0
2,3, 1, 3, 0,16, 0.00,10.00,Tuesday
8,7405412.598127416
1256,0.0
2,3, 1, 3, 0,16,10.00,20.00,Tuesday
8,7367051.6571557615
1256,0.0
2,3, 1, 3, 0,16,20.00,30.00,Tuesday
8,8605257.733156355
1256,0.0
2,3, 1, 3, 0,16,30.00,40.00,Tuesday
8,7274552.853524587
1256,0.0
2,3, 1, 3, 0,16,40.00,50.00,Tuesday
8,7232712.3861580165
1256,0.0
2,3, 1, 3, 0,16,50.00,60.00,Tuesday
8,7190326.506740898
1256,0.0
2,3, 1, 3, 0,17, 0.00,10.00,Tuesday
8,7152094.178601412
1256,0.0
2,3, 1, 3, 0,17,10.00,20.00,Tuesday
8,8418091.76813655
1256,0.0
2,3, 1, 3, 0,17,20.00,30.00,Tuesday
8,7067690.087902351
1256,0.0
2,3, 1, 3, 0,17,30.00,40.00,Tuesday
8,7045198.990884283
1256,0.0
2,3, 1, 3, 0,17,40.00,50.00,Tuesday
8,7015600.633615913
1256,0.0
2,3, 1, 3, 0,17,50.00,60.00,Tuesday
8,8290073.218292277
1256,0.0
2,3, 1, 3, 0,18, 0.00,10.00,Tuesday
8,4670298.766719177
1256,0.0
2,3, 1, 3, 0,18,10.00,20.00,Tuesday
8,4625681.057520646
1256,0.0
2,3, 1, 3, 0,18,20.00,30.00,Tuesday
8,4588560.759929497
1256,0.0
2,3, 1, 3, 0,18,30.00,40.00,Tuesday
8,4549221.220818181
1256,0.0
2,3, 1, 3, 0,18,40.00,50.00,Tuesday
8,5031963.84174263
1256,0.0
2,3, 1, 3, 0,18,50.00,60.00,Tuesday
8,5000662.417981868
1256,0.0
2,3, 1, 3, 0,19, 0.00,10.00,Tuesday
8,3487967.409887875
1256,0.0
2,3, 1, 3, 0,19,10.00,20.00,Tuesday
8,4765681.734021247
1256,0.0
2,3, 1, 3, 0,19,20.00,30.00,Tuesday
8,3487967.409887875
1256,0.0
2,3, 1, 3, 0,19,30.00,40.00,Tuesday
8,3487967.409887875
1256,0.0
2,3, 1, 3, 0,19,40.00,50.00,Tuesday
8,3487967.409887875
1256,0.0
2,3, 1, 3, 0,19,50.00,60.00,Tuesday
8,3487967.409887875
1256,0.0
2,3, 1, 3, 0,20, 0.00,10.00,Tuesday
8,2307897.2668457753
1256,0.0
2,3, 1, 3, 0,20,10.00,20.00,Tuesday
8,2307897.2668457753
1256,0.0
2,3, 1, 3, 0,20,20.00,30.00,Tuesday
8,2307897.2668457753
1256,0.0
2,3, 1, 3, 0,20,30.00,40.00,Tuesday
8,2307897.2668457753
1256,0.0
2,3, 1, 3, 0,20,40.00,50.00,Tuesday
8,3571776.8023349023
1256,0.0
2,3, 1, 3, 0,20,50.00,60.00,Tuesday
8,2307897.2668457753
1256,0.0
2,3, 1, 3, 0,21, 0.00,10.00,Tuesday
8,2066257.0263904112
1256,0.0
2,3, 1, 3, 0,21,10.00,20.00,Tuesday
8,2066257.0263904112
1256,0.0
2,3, 1, 3, 0,21,20.00,30.00,Tuesday
8,2066257.0263904112
1256,0.0
2,3, 1, 3, 0,21,30.00,40.00,Tuesday
8,2066257.0263904112
1256,0.0
2,3, 1, 3, 0,21,40.00,50.00,Tuesday
8,2066257.0263904112
1256,0.0
2,3, 1, 3, 0,21,50.00,60.00,Tuesday
8,2066257.0263904112
1256,0.0
2,3, 1, 3, 0,22, 0.00,10.00,Tuesday
8,2066257.0263892289
1256,0.0
2,3, 1, 3, 0,22,10.00,20.00,Tuesday
8,2066257.0263892289
1256,0.0
2,3, 1, 3, 0,22,20.00,30.00,Tuesday
8,2066257.0263892289
1256,0.0
2,3, 1, 3, 0,22,30.00,40.00,Tuesday
8,2066257.0263892289
1256,0.0
2,3, 1, 3, 0,22,40.00,50.00,Tuesday
8,2066257.0263892289
1256,0.0
2,3, 1, 3, 0,22,50.00,60.00,Tuesday
8,2066257.0263892289
1256,0.0
2,3, 1, 3, 0,23, 0.00,10.00,Tuesday
8,3100077.1383503214
1256,0.0
2,3, 1, 3, 0,23,10.00,20.00,Tuesday
8,1848780.8099780276
1256,0.0
2,3, 1, 3, 0,23,20.00,30.00,Tuesday
8,1848780.8099780276
1256,0.0
2,3, 1, 3, 0,23,30.00,40.00,Tuesday
8,1848780.8099780276
1256,0.0
2,3, 1, 3, 0,23,40.00,50.00,Tuesday
8,1848780.8099780276
1256,0.0
2,3, 1, 3, 0,23,50.00,60.00,Tuesday
8,1848780.8099780276
1256,0.0
2,3, 1, 3, 0,24, 0.00,10.00,Tuesday
8,1778785.360170732
1256,0.0
2,3, 1, 3, 0,24,10.00,20.00,Tuesday
8,1778785.360170732
1256,0.0
2,3, 1, 3, 0,24,20.00,30.00,Tuesday
8,1778785.360170732
1256,0.0
2,3, 1, 3, 0,24,30.00,40.00,Tuesday
8,1778785.360170732
1256,0.0
2,3, 1, 3, 0,24,40.00,50.00,Tuesday
8,1778785.360170732
1256,0.0
2,3, 1, 3, 0,24,50.00,60.00,Tuesday
8,1778785.360170732
1256,0.0
2,4, 1, 4, 0, 1, 0.00,10.00,Wednesday
8,2124610.0961490157
1256,0.0
2,4, 1, 4, 0, 1,10.00,20.00,Wednesday
8,2124610.0961490157
1256,0.0
2,4, 1, 4, 0, 1,20.00,30.00,Wednesday
8,2124610.0961490157
1256,0.0
2,4, 1, 4, 0, 1,30.00,40.00,Wednesday
8,2124610.0961490157
1256,0.0
2,4, 1, 4, 0, 1,40.00,50.00,Wednesday
8,2124610.0961490157
1256,0.0
2,4, 1, 4, 0, 1,50.00,60.00,Wednesday
8,2124610.0961490157
1256,0.0
2,4, 1, 4, 0, 2, 0.00,10.00,Wednesday
8,2124610.0961490157
1256,0.0
2,4, 1, 4, 0, 2,10.00,20.00,Wednesday
8,2124610.0961490157
1256,0.0
2,4, 1, 4, 0, 2,20.00,30.00,Wednesday
8,2124610.0961490157
1256,0.0
2,4, 1, 4, 0, 2,30.00,40.00,Wednesday
8,2124610.0961490157
1256,0.0
2,4, 1, 4, 0, 2,40.00,50.00,Wednesday
8,2124610.0961490157
1256,0.0
2,4, 1, 4, 0, 2,50.00,60.00,Wednesday
8,2124610.0961490157
1256,0.0
2,4, 1, 4, 0, 3, 0.00,10.00,Wednesday
8,2124610.0961490157
1256,0.0
2,4, 1, 4, 0, 3,10.00,20.00,Wednesday
8,2124610.0961490157
1256,0.0
2,4, 1, 4, 0, 3,20.00,30.00,Wednesday
8,2124610.0961490157
1256,0.0
2,4, 1, 4, 0, 3,30.00,40.00,Wednesday
8,2124610.0961490157
1256,0.0
2,4, 1, 4, 0, 3,40.00,50.00,Wednesday
8,2274610.0961490157
1256,0.0
2,4, 1, 4, 0, 3,50.00,60.00,Wednesday
8,2274610.0961490157
1256,0.0