Program Version,EnergyPlus, Version 22.1.0-ed759b17ee, YMD=2022.11.28 22:36
1,5,Environment Title[],Latitude[deg],Longitude[deg],Time Zone[],Elevation[m]
2,8,Day of Simulation[],Month[],Day of Month[],DST Indicator[1=yes 0=no],Hour[],StartMinute[],EndMinute[],DayType
3,5,Cumulative Day of Simulation[],Month[],Day of Month[],DST Indicator[1=yes 0=no],DayType  ! When Daily Report Variables Requested
4,2,Cumulative Days of Simulation[],Month[]  ! When Monthly Report Variables Requested
5,1,Cumulative Days of Simulation[] ! When Run Period Report Variables Requested
6,1,Calendar Year of Simulation[] ! When Annual Report Variables Requested
8,1,Electricity:Facility [J] !TimeStep
1256,1,NaturalGas:Facility [J] !TimeStep
End of Data Dictionary
1,TAMPA-MACDILL.AFB_FL_USA ANN CLG .4% CONDNS DB=>MWB HVAC Sizing Pass 1,  27.85, -82.52,  -5.00,   8.00
2,1, 8,21, 0, 1, 0.00,10.00,SummerDesignDay
8,5755230.19735453
1256,0.0
2,1, 8,21, 0, 1,10.00,20.00,SummerDesignDay
8,5755230.19735453
1256,0.0
2,1, 8,21, 0, 1,20.00,30.00,SummerDesignDay
8,5755230.19735453
1256,0.0
2,1, 8,21, 0, 1,30.00,40.00,SummerDesignDay
8,5755230.19735453
1256,0.0
2,1, 8,21, 0, 1,40.00,50.00,SummerDesignDay
8,5755230.19735453
1256,0.0
2,1, 8,21, 0, 1,50.00,60.00,SummerDesignDay
8,5755230.19735453
1256,0.0
2,1, 8,21, 0, 2, 0.00,10.00,SummerDesignDay
8,5755230.19735453
1256,0.0
2,1, 8,21, 0, 2,10.00,20.00,SummerDesignDay
8,5755230.19735453
1256,0.0
2,1, 8,21, 0, 2,20.00,30.00,SummerDesignDay
8,5755230.19735453
1256,0.0
2,1, 8,21, 0, 2,30.00,40.00,SummerDesignDay
8,5755230.19735453
1256,0.0
2,1, 8,21, 0, 2,40.00,50.00,SummerDesignDay
8,5755230.19735453
1256,0.0
2,1, 8,21, 0, 2,50.00,60.00,SummerDesignDay
8,5755230.19735453
1256,0.0
2,1, 8,21, 0, 3, 0.00,10.00,SummerDesignDay
8,5755230.19735453
1256,0.0
2,1, 8,21, 0, 3,10.00,20.00,SummerDesignDay
8,5755230.19735453
1256,0.0
2,1, 8,21, 0, 3,20.00,30.00,SummerDesignDay
8,5755230.19735453
1256,0.0
2,1, 8,21, 0, 3,30.00,40.00,SummerDesignDay
8,5755230.19735453
1256,0.0
2,1, 8,21, 0, 3,40.00,50.00,SummerDesignDay
8,5755230.19735453
1256,0.0
2,1, 8,21, 0, 3,50.00,60.00,SummerDesignDay
8,5755230.19735453
1256,0.0
2,1, 8,21, 0, 4, 0.00,10.00,SummerDesignDay
8,5755230.19735453
1256,0.0
2,1, 8,21, 0, 4,10.00,20.00,SummerDesignDay
8,5755230.19735453
1256,0.0
2,1, 8,21, 0, 4,20.00,30.00,SummerDesignDay
8,5755230.19735453
1256,0.0
2,1, 8,21, 0, 4,30.00,40.00,SummerDesignDay
8,5755230.19735453
1256,0.0
2,1, 8,21, 0, 4,40.00,50.00,SummerDesignDay
8,5755230.19735453
1256,0.0
2,1, 8,21, 0, 4,50.00,60.00,SummerDesignDay
8,5755230.19735453
1256,0.0
2,1, 8,21, 0, 5, 0.00,10.00,SummerDesignDay
8,5755230.19735453
1256,0.0
2,1, 8,21, 0, 5,10.00,20.00,SummerDesignDay
8,5755230.19735453
1256,0.0
2,1, 8,21, 0, 5,20.00,30.00,SummerDesignDay
8,5755230.19735453
1256,0.0
2,1, 8,21, 0, 5,30.00,40.00,SummerDesignDay
8,5755230.19735453
1256,0.0
2,1, 8,21, 0, 5,40.00,50.00,SummerDesignDay
8,5755230.19735453
1256,0.0
2,1, 8,21, 0, 5,50.00,60.00,SummerDesignDay
8,5755230.19735453
1256,0.0
2,1, 8,21, 0, 6, 0.00,10.00,SummerDesignDay
8,5755230.19735453
1256,0.0
2,1, 8,21, 0, 6,10.00,20.00,SummerDesignDay
8,5755230.19735453
1256,0.0
2,1, 8,21, 0, 6,20.00,30.00,SummerDesignDay
8,5755230.19735453
1256,0.0
2,1, 8,21, 0, 6,30.00,40.00,SummerDesignDay
8,5755230.19735453
1256,0.0
2,1, 8,21, 0, 6,40.00,50.00,SummerDesignDay
8,5755230.19735453
1256,0.0
2,1, 8,21, 0, 6,50.00,60.00,SummerDesignDay
8,5755230.19735453
1256,0.0
2,1, 8,21, 0, 7, 0.00,10.00,SummerDesignDay
8,14486306.381255222
1256,0.0
2,1, 8,21, 0, 7,10.00,20.00,SummerDesignDay
8,14493192.373759957
1256,0.0
2,1, 8,21, 0, 7,20.00,30.00,SummerDesignDay
8,14500127.704586
1256,0.0
2,1, 8,21, 0, 7,30.00,40.00,SummerDesignDay
8,14514638.581839645
1256,0.0
2,1, 8,21, 0, 7,40.00,50.00,SummerDesignDay
8,14505368.781708816
1256,0.0
2,1, 8,21, 0, 7,50.00,60.00,SummerDesignDay
8,14416132.856775524
1256,0.0
2,1, 8,21, 0, 8, 0.00,10.00,SummerDesignDay
8,14275307.72960349
1256,0.0
2,1, 8,21, 0, 8,10.00,20.00,SummerDesignDay
8,14142568.56407415
1256,0.0
2,1, 8,21, 0, 8,20.00,30.00,SummerDesignDay
8,13992569.899516517
1256,0.0
2,1, 8,21, 0, 8,30.00,40.00,SummerDesignDay
8,13897257.878910508
1256,0.0
2,1, 8,21, 0, 8,40.00,50.00,SummerDesignDay
8,13844829.773658495
1256,0.0
2,1, 8,21, 0, 8,50.00,60.00,SummerDesignDay
8,13812404.852346396
1256,0.0
2,1, 8,21, 0, 9, 0.00,10.00,SummerDesignDay
8,13798305.275347997
1256,0.0
2,1, 8,21, 0, 9,10.00,20.00,SummerDesignDay
8,13799584.892668135
1256,0.0
2,1, 8,21, 0, 9,20.00,30.00,SummerDesignDay
8,13805667.439451931
1256,0.0
2,1, 8,21, 0, 9,30.00,40.00,SummerDesignDay
8,13813666.165861944
1256,0.0
2,1, 8,21, 0, 9,40.00,50.00,SummerDesignDay
8,13821142.43229006
1256,0.0
2,1, 8,21, 0, 9,50.00,60.00,SummerDesignDay
8,13817386.759821357
1256,0.0
2,1, 8,21, 0,10, 0.00,10.00,SummerDesignDay
8,13817057.55648544
1256,0.0
2,1, 8,21, 0,10,10.00,20.00,SummerDesignDay
8,13823715.679751918
1256,0.0
2,1, 8,21, 0,10,20.00,30.00,SummerDesignDay
8,13834749.9769241
1256,0.0
2,1, 8,21, 0,10,30.00,40.00,SummerDesignDay
8,13840175.988599017
1256,0.0
2,1, 8,21, 0,10,40.00,50.00,SummerDesignDay
8,13842235.422411636
1256,0.0
2,1, 8,21, 0,10,50.00,60.00,SummerDesignDay
8,13851527.921247406
1256,0.0
2,1, 8,21, 0,11, 0.00,10.00,SummerDesignDay
8,13852729.644722655
1256,0.0
2,1, 8,21, 0,11,10.00,20.00,SummerDesignDay
8,13855365.97844277
1256,0.0
2,1, 8,21, 0,11,20.00,30.00,SummerDesignDay
8,13859760.900760481
1256,0.0
2,1, 8,21, 0,11,30.00,40.00,SummerDesignDay
8,13864589.431125183
1256,0.0
2,1, 8,21, 0,11,40.00,50.00,SummerDesignDay
8,13865383.963980155
1256,0.0
2,1, 8,21, 0,11,50.00,60.00,SummerDesignDay
8,13867651.122126272
1256,0.0
2,1, 8,21, 0,12, 0.00,10.00,SummerDesignDay
8,13860607.9144132
1256,0.0
2,1, 8,21, 0,12,10.00,20.00,SummerDesignDay
8,13852874.132488325
1256,0.0
2,1, 8,21, 0,12,20.00,30.00,SummerDesignDay
8,13845265.810069924
1256,0.0
2,1, 8,21, 0,12,30.00,40.00,SummerDesignDay
8,13855352.81970044
1256,0.0
2,1, 8,21, 0,12,40.00,50.00,SummerDesignDay
8,13868827.3039389
1256,0.0
2,1, 8,21, 0,12,50.00,60.00,SummerDesignDay
8,13882342.963856751
1256,0.0
2,1, 8,21, 0,13, 0.00,10.00,SummerDesignDay
8,13891466.961556017
1256,0.0
2,1, 8,21, 0,13,10.00,20.00,SummerDesignDay
8,13900605.108476963
1256,0.0
2,1, 8,21, 0,13,20.00,30.00,SummerDesignDay
8,13909887.594179712
1256,0.0
2,1, 8,21, 0,13,30.00,40.00,SummerDesignDay
8,13919430.447566746
1256,0.0
2,1, 8,21, 0,13,40.00,50.00,SummerDesignDay
8,13929278.63545012
1256,0.0
2,1, 8,21, 0,13,50.00,60.00,SummerDesignDay
8,13938676.169444479
1256,0.0
2,1, 8,21, 0,14, 0.00,10.00,SummerDesignDay
8,13941564.848395865
1256,0.0
2,1, 8,21, 0,14,10.00,20.00,SummerDesignDay
8,13944825.16272051
1256,0.0
2,1, 8,21, 0,14,20.00,30.00,SummerDesignDay
8,13947926.365438819
1256,0.0
2,1, 8,21, 0,14,30.00,40.00,SummerDesignDay
8,13961509.442628361
1256,0.0
2,1, 8,21, 0,14,40.00,50.00,SummerDesignDay
8,13988215.52235327
1256,0.0
2,1, 8,21, 0,14,50.00,60.00,SummerDesignDay
8,14016005.00990951
1256,0.0
2,1, 8,21, 0,15, 0.00,10.00,SummerDesignDay
8,14033300.34374619
1256,0.0
2,1, 8,21, 0,15,10.00,20.00,SummerDesignDay
8,14050056.283395112
1256,0.0
2,1, 8,21, 0,15,20.00,30.00,SummerDesignDay
8,14065013.834889378
1256,0.0
2,1, 8,21, 0,15,30.00,40.00,SummerDesignDay
8,14080192.071561143
1256,0.0
2,1, 8,21, 0,15,40.00,50.00,SummerDesignDay
8,14094299.42640362
1256,0.0
2,1, 8,21, 0,15,50.00,60.00,SummerDesignDay
8,14105821.519926494
1256,0.0
2,1, 8,21, 0,16, 0.00,10.00,SummerDesignDay
8,14102404.598464508
1256,0.0
2,1, 8,21, 0,16,10.00,20.00,SummerDesignDay
8,14092600.261301085
1256,0.0
2,1, 8,21, 0,16,20.00,30.00,SummerDesignDay
8,14084724.908561027
1256,0.0
2,1, 8,21, 0,16,30.00,40.00,SummerDesignDay
8,14068506.965196501
1256,0.0
2,1, 8,21, 0,16,40.00,50.00,SummerDesignDay
8,14048811.63461028
1256,0.0
2,1, 8,21, 0,16,50.00,60.00,SummerDesignDay
8,14026823.279629374
1256,0.0
2,1, 8,21, 0,17, 0.00,10.00,SummerDesignDay
8,13997866.184931347
1256,0.0
2,1, 8,21, 0,17,10.00,20.00,SummerDesignDay
8,13966586.308627509
1256,0.0
2,1, 8,21, 0,17,20.00,30.00,SummerDesignDay
8,13932229.062151337
1256,0.0
2,1, 8,21, 0,17,30.00,40.00,SummerDesignDay
8,13894494.681557886
1256,0.0
2,1, 8,21, 0,17,40.00,50.00,SummerDesignDay
8,13853719.42986563
1256,0.0
2,1, 8,21, 0,17,50.00,60.00,SummerDesignDay
8,13809668.295076922
1256,0.0
2,1, 8,21, 0,18, 0.00,10.00,SummerDesignDay
8,13758207.125058565
1256,0.0
2,1, 8,21, 0,18,10.00,20.00,SummerDesignDay
8,13703382.544888552
1256,0.0
2,1, 8,21, 0,18,20.00,30.00,SummerDesignDay
8,13632374.335127348
1256,0.0
2,1, 8,21, 0,18,30.00,40.00,SummerDesignDay
8,13570155.622300407
1256,0.0
2,1, 8,21, 0,18,40.00,50.00,SummerDesignDay
8,13510781.139450936
1256,0.0
2,1, 8,21, 0,18,50.00,60.00,SummerDesignDay
8,13447058.931999417
1256,0.0
2,1, 8,21, 0,19, 0.00,10.00,SummerDesignDay
8,13365882.209887361
1256,0.0
2,1, 8,21, 0,19,10.00,20.00,SummerDesignDay
8,13276056.673439708
1256,0.0
2,1, 8,21, 0,19,20.00,30.00,SummerDesignDay
8,13162943.490833662
1256,0.0
2,1, 8,21, 0,19,30.00,40.00,SummerDesignDay
8,13055170.991316373
1256,0.0
2,1, 8,21, 0,19,40.00,50.00,SummerDesignDay
8,12932028.151059963
1256,0.0
2,1, 8,21, 0,19,50.00,60.00,SummerDesignDay
8,12831704.670414763
1256,0.0
2,1, 8,21, 0,20, 0.00,10.00,SummerDesignDay
8,5940684.197355092
1256,0.0
2,1, 8,21, 0,20,10.00,20.00,SummerDesignDay
8,5940684.197355092
1256,0.0
2,1, 8,21, 0,20,20.00,30.00,SummerDesignDay
8,5940684.197355092
1256,0.0
2,1, 8,21, 0,20,30.00,40.00,SummerDesignDay
8,5940684.197355092
1256,0.0
2,1, 8,21, 0,20,40.00,50.00,SummerDesignDay
8,5940684.197355092
1256,0.0
2,1, 8,21, 0,20,50.00,60.00,SummerDesignDay
8,5940684.197355092
1256,0.0
2,1, 8,21, 0,21, 0.00,10.00,SummerDesignDay
8,5940684.197355372
1256,0.0
2,1, 8,21, 0,21,10.00,20.00,SummerDesignDay
8,5940684.197355372
1256,0.0
2,1, 8,21, 0,21,20.00,30.00,SummerDesignDay
8,5940684.197355372
1256,0.0
2,1, 8,21, 0,21,30.00,40.00,SummerDesignDay
8,5940684.197355372
1256,0.0
2,1, 8,21, 0,21,40.00,50.00,SummerDesignDay
8,5940684.197355372
1256,0.0
2,1, 8,21, 0,21,50.00,60.00,SummerDesignDay
8,5940684.197355372
1256,0.0
2,1, 8,21, 0,22, 0.00,10.00,SummerDesignDay
8,5940684.19735481
1256,0.0
2,1, 8,21, 0,22,10.00,20.00,SummerDesignDay
8,5940684.19735481
1256,0.0
2,1, 8,21, 0,22,20.00,30.00,SummerDesignDay
8,5940684.19735481
1256,0.0
2,1, 8,21, 0,22,30.00,40.00,SummerDesignDay
8,5940684.19735481
1256,0.0
2,1, 8,21, 0,22,40.00,50.00,SummerDesignDay
8,5940684.19735481
1256,0.0
2,1, 8,21, 0,22,50.00,60.00,SummerDesignDay
8,5940684.19735481
1256,0.0
2,1, 8,21, 0,23, 0.00,10.00,SummerDesignDay
8,5940684.19735453
1256,0.0
2,1, 8,21, 0,23,10.00,20.00,SummerDesignDay
8,5940684.19735453
1256,0.0
2,1, 8,21, 0,23,20.00,30.00,SummerDesignDay
8,5940684.19735453
1256,0.0
2,1, 8,21, 0,23,30.00,40.00,SummerDesignDay
8,5940684.19735453
1256,0.0
2,1, 8,21, 0,23,40.00,50.00,SummerDesignDay
8,5940684.19735453
1256,0.0
2,1, 8,21, 0,23,50.00,60.00,SummerDesignDay
8,5940684.19735453
1256,0.0
2,1, 8,21, 0,24, 0.00,10.00,SummerDesignDay
8,5940684.19735453
1256,0.0
2,1, 8,21, 0,24,10.00,20.00,SummerDesignDay
8,5940684.19735453
1256,0.0
2,1, 8,21, 0,24,20.00,30.00,SummerDesignDay
8,5940684.19735453
1256,0.0
2,1, 8,21, 0,24,30.00,40.00,SummerDesignDay
8,5940684.19735453
1256,0.0
2,1, 8,21, 0,24,40.00,50.00,SummerDesignDay
8,5940684.19735453
1256,0.0
2,1, 8,21, 0,24,50.00,60.00,SummerDesignDay
8,5940684.19735453
1256,0.0
1,TAMPA-MACDILL.AFB_FL_USA ANN HTG 99.6% CONDNS DB HVAC Sizing Pass 1,  27.85, -82.52,  -5.00,   8.00
2,1, 1,21, 0, 1, 0.00,10.00,WinterDesignDay
8,704346.0368362104
1256,0.0
2,1, 1,21, 0, 1,10.00,20.00,WinterDesignDay
8,704346.0368362104
1256,0.0
2,1, 1,21, 0, 1,20.00,30.00,WinterDesignDay
8,704346.0368362104
1256,0.0
2,1, 1,21, 0, 1,30.00,40.00,WinterDesignDay
8,704346.0368362104
1256,0.0
2,1, 1,21, 0, 1,40.00,50.00,WinterDesignDay
8,704346.0368362104
1256,0.0
2,1, 1,21, 0, 1,50.00,60.00,WinterDesignDay
8,704346.0368362104
1256,0.0
2,1, 1,21, 0, 2, 0.00,10.00,WinterDesignDay
8,704346.0368362104
1256,0.0
2,1, 1,21, 0, 2,10.00,20.00,WinterDesignDay
8,704346.0368362104
1256,0.0
2,1, 1,21, 0, 2,20.00,30.00,WinterDesignDay
8,704346.0368362104
1256,0.0
2,1, 1,21, 0, 2,30.00,40.00,WinterDesignDay
8,704346.0368362104
1256,0.0
2,1, 1,21, 0, 2,40.00,50.00,WinterDesignDay
8,704346.0368362104
1256,0.0
2,1, 1,21, 0, 2,50.00,60.00,WinterDesignDay
8,704346.0368362104
1256,0.0
2,1, 1,21, 0, 3, 0.00,10.00,WinterDesignDay
8,704346.0368362104
1256,0.0
2,1, 1,21, 0, 3,10.00,20.00,WinterDesignDay
8,704346.0368362104
1256,0.0
2,1, 1,21, 0, 3,20.00,30.00,WinterDesignDay
8,704346.0368362104
1256,0.0
2,1, 1,21, 0, 3,30.00,40.00,WinterDesignDay
8,704346.0368362104
1256,0.0
2,1, 1,21, 0, 3,40.00,50.00,WinterDesignDay
8,704346.0368362104
1256,0.0
2,1, 1,21, 0, 3,50.00,60.00,WinterDesignDay
8,704346.0368362104
1256,0.0
2,1, 1,21, 0, 4, 0.00,10.00,WinterDesignDay
8,704346.0368362104
1256,0.0
2,1, 1,21, 0, 4,10.00,20.00,WinterDesignDay
8,704346.0368362104
1256,0.0
2,1, 1,21, 0, 4,20.00,30.00,WinterDesignDay
8,704346.0368362104
1256,0.0
2,1, 1,21, 0, 4,30.00,40.00,WinterDesignDay
8,704346.0368362104
1256,0.0
2,1, 1,21, 0, 4,40.00,50.00,WinterDesignDay
8,704346.0368362104
1256,0.0
2,1, 1,21, 0, 4,50.00,60.00,WinterDesignDay
8,704346.0368362104
1256,0.0
2,1, 1,21, 0, 5, 0.00,10.00,WinterDesignDay
8,704346.0368362104
1256,0.0
2,1, 1,21, 0, 5,10.00,20.00,WinterDesignDay
8,704346.0368362104
1256,0.0
2,1, 1,21, 0, 5,20.00,30.00,WinterDesignDay
8,704346.0368362104
1256,0.0
2,1, 1,21, 0, 5,30.00,40.00,WinterDesignDay
8,704346.0368362104
1256,0.0
2,1, 1,21, 0, 5,40.00,50.00,WinterDesignDay
8,704346.0368362104
1256,0.0
2,1, 1,21, 0, 5,50.00,60.00,WinterDesignDay
8,704346.0368362104
1256,0.0
2,1, 1,21, 0, 6, 0.00,10.00,WinterDesignDay
8,704346.0368362104
1256,0.0
2,1, 1,21, 0, 6,10.00,20.00,WinterDesignDay
8,704346.0368362104
1256,0.0
2,1, 1,21, 0, 6,20.00,30.00,WinterDesignDay
8,704346.0368362104
1256,0.0
2,1, 1,21, 0, 6,30.00,40.00,WinterDesignDay
8,704346.0368362104
1256,0.0
2,1, 1,21, 0, 6,40.00,50.00,WinterDesignDay
8,704346.0368362104
1256,0.0
2,1, 1,21, 0, 6,50.00,60.00,WinterDesignDay
8,704346.0368362104
1256,0.0
2,1, 1,21, 0, 7, 0.00,10.00,WinterDesignDay
8,889800.0368362104
1256,0.0
2,1, 1,21, 0, 7,10.00,20.00,WinterDesignDay
8,889800.0368362104
1256,0.0
2,1, 1,21, 0, 7,20.00,30.00,WinterDesignDay
8,889800.0368362104
1256,0.0
2,1, 1,21, 0, 7,30.00,40.00,WinterDesignDay
8,889800.0368362104
1256,0.0
2,1, 1,21, 0, 7,40.00,50.00,WinterDesignDay
8,889800.0368362104
1256,0.0
2,1, 1,21, 0, 7,50.00,60.00,WinterDesignDay
8,889800.0368362104
1256,0.0
2,1, 1,21, 0, 8, 0.00,10.00,WinterDesignDay
8,889800.0368370506
1256,0.0
2,1, 1,21, 0, 8,10.00,20.00,WinterDesignDay
8,889800.0368370506
1256,0.0
2,1, 1,21, 0, 8,20.00,30.00,WinterDesignDay
8,342600.0368370506
1256,0.0
2,1, 1,21, 0, 8,30.00,40.00,WinterDesignDay
8,342600.0368370506
1256,0.0
2,1, 1,21, 0, 8,40.00,50.00,WinterDesignDay
8,342600.0368370506
1256,0.0
2,1, 1,21, 0, 8,50.00,60.00,WinterDesignDay
8,342600.0368370506
1256,0.0
2,1, 1,21, 0, 9, 0.00,10.00,WinterDesignDay
8,342600.0368379219
1256,0.0
2,1, 1,21, 0, 9,10.00,20.00,WinterDesignDay
8,342600.0368379219
1256,0.0
2,1, 1,21, 0, 9,20.00,30.00,WinterDesignDay
8,342600.0368379219
1256,0.0
2,1, 1,21, 0, 9,30.00,40.00,WinterDesignDay
8,342600.0368379219
1256,0.0
2,1, 1,21, 0, 9,40.00,50.00,WinterDesignDay
8,342600.0368379219
1256,0.0
2,1, 1,21, 0, 9,50.00,60.00,WinterDesignDay
8,342600.0368379219
1256,0.0
2,1, 1,21, 0,10, 0.00,10.00,WinterDesignDay
8,342600.0368382019
1256,0.0
2,1, 1,21, 0,10,10.00,20.00,WinterDesignDay
8,342600.0368382019
1256,0.0
2,1, 1,21, 0,10,20.00,30.00,WinterDesignDay
8,342600.0368382019
1256,0.0
2,1, 1,21, 0,10,30.00,40.00,WinterDesignDay
8,342600.0368382019
1256,0.0
2,1, 1,21, 0,10,40.00,50.00,WinterDesignDay
8,342600.0368382019
1256,0.0
2,1, 1,21, 0,10,50.00,60.00,WinterDesignDay
8,342600.0368382019
1256,0.0
2,1, 1,21, 0,11, 0.00,10.00,WinterDesignDay
8,342600.0368382019
1256,0.0
2,1, 1,21, 0,11,10.00,20.00,WinterDesignDay
8,342600.0368382019
1256,0.0
2,1, 1,21, 0,11,20.00,30.00,WinterDesignDay
8,342600.0368382019
1256,0.0
2,1, 1,21, 0,11,30.00,40.00,WinterDesignDay
8,342600.0368382019
1256,0.0
2,1, 1,21, 0,11,40.00,50.00,WinterDesignDay
8,342600.0368382019
1256,0.0
2,1, 1,21, 0,11,50.00,60.00,WinterDesignDay
8,342600.0368382019
1256,0.0
2,1, 1,21, 0,12, 0.00,10.00,WinterDesignDay
8,342600.03683876205
1256,0.0
2,1, 1,21, 0,12,10.00,20.00,WinterDesignDay
8,342600.03683876205
1256,0.0
2,1, 1,21, 0,12,20.00,30.00,WinterDesignDay
8,342600.03683876205
1256,0.0
2,1, 1,21, 0,12,30.00,40.00,WinterDesignDay
8,342600.03683876205
1256,0.0
2,1, 1,21, 0,12,40.00,50.00,WinterDesignDay
8,342600.03683876205
1256,0.0
2,1, 1,21, 0,12,50.00,60.00,WinterDesignDay
8,342600.03683876205
1256,0.0
2,1, 1,21, 0,13, 0.00,10.00,WinterDesignDay
8,342600.0368393163
1256,0.0
2,1, 1,21, 0,13,10.00,20.00,WinterDesignDay
8,342600.0368393163
1256,0.0
2,1, 1,21, 0,13,20.00,30.00,WinterDesignDay
8,342600.0368393163
1256,0.0
2,1, 1,21, 0,13,30.00,40.00,WinterDesignDay
8,342600.0368393163
1256,0.0
2,1, 1,21, 0,13,40.00,50.00,WinterDesignDay
8,1669530.6284470428
1256,0.0
2,1, 1,21, 0,13,50.00,60.00,WinterDesignDay
8,342600.0368393163
1256,0.0
2,1, 1,21, 0,14, 0.00,10.00,WinterDesignDay
8,342600.03683904215
1256,0.0
2,1, 1,21, 0,14,10.00,20.00,WinterDesignDay
8,342600.03683904215
1256,0.0
2,1, 1,21, 0,14,20.00,30.00,WinterDesignDay
8,342600.03683904215
1256,0.0
2,1, 1,21, 0,14,30.00,40.00,WinterDesignDay
8,342600.03683904215
1256,0.0
2,1, 1,21, 0,14,40.00,50.00,WinterDesignDay
8,342600.03683904215
1256,0.0
2,1, 1,21, 0,14,50.00,60.00,WinterDesignDay
8,342600.03683904215
1256,0.0
2,1, 1,21, 0,15, 0.00,10.00,WinterDesignDay
8,342600.0368379219
1256,0.0
2,1, 1,21, 0,15,10.00,20.00,WinterDesignDay
8,342600.0368379219
1256,0.0
2,1, 1,21, 0,15,20.00,30.00,WinterDesignDay
8,342600.0368379219
1256,0.0
2,1, 1,21, 0,15,30.00,40.00,WinterDesignDay
8,342600.0368379219
1256,0.0
2,1, 1,21, 0,15,40.00,50.00,WinterDesignDay
8,342600.0368379219
1256,0.0
2,1, 1,21, 0,15,50.00,60.00,WinterDesignDay
8,342600.0368379219
1256,0.0
2,1, 1,21, 0,16, 0.00,10.00,WinterDesignDay
8,342600.0368379219
1256,0.0
2,1, 1,21, 0,16,10.00,20.00,WinterDesignDay
8,342600.0368379219
1256,0.0
2,1, 1,21, 0,16,20.00,30.00,WinterDesignDay
8,342600.0368379219
1256,0.0
2,1, 1,21, 0,16,30.00,40.00,WinterDesignDay
8,342600.0368379219
1256,0.0
2,1, 1,21, 0,16,40.00,50.00,WinterDesignDay
8,342600.0368379219
1256,0.0
2,1, 1,21, 0,16,50.00,60.00,WinterDesignDay
8,342600.0368379219
1256,0.0
2,1, 1,21, 0,17, 0.00,10.00,WinterDesignDay
8,342600.036838482
1256,0.0
2,1, 1,21, 0,17,10.00,20.00,WinterDesignDay
8,342600.036838482
1256,0.0
2,1, 1,21, 0,17,20.00,30.00,WinterDesignDay
8,342600.036838482
1256,0.0
2,1, 1,21, 0,17,30.00,40.00,WinterDesignDay
8,342600.036838482
1256,0.0
2,1, 1,21, 0,17,40.00,50.00,WinterDesignDay
8,342600.036838482
1256,0.0
2,1, 1,21, 0,17,50.00,60.00,WinterDesignDay
8,342600.036838482
1256,0.0
2,1, 1,21, 0,18, 0.00,10.00,WinterDesignDay
8,342600.03683736175
1256,0.0
2,1, 1,21, 0,18,10.00,20.00,WinterDesignDay
8,342600.03683736175
1256,0.0
2,1, 1,21, 0,18,20.00,30.00,WinterDesignDay
8,342600.03683736175
1256,0.0
2,1, 1,21, 0,18,30.00,40.00,WinterDesignDay
8,342600.03683736175
1256,0.0
2,1, 1,21, 0,18,40.00,50.00,WinterDesignDay
8,342600.03683736175
1256,0.0
2,1, 1,21, 0,18,50.00,60.00,WinterDesignDay
8,889800.0368373618
1256,0.0
2,1, 1,21, 0,19, 0.00,10.00,WinterDesignDay
8,889800.0368373618
1256,0.0
2,1, 1,21, 0,19,10.00,20.00,WinterDesignDay
8,889800.0368373618
1256,0.0
2,1, 1,21, 0,19,20.00,30.00,WinterDesignDay
8,889800.0368373618
1256,0.0
2,1, 1,21, 0,19,30.00,40.00,WinterDesignDay
8,889800.0368373618
1256,0.0
2,1, 1,21, 0,19,40.00,50.00,WinterDesignDay
8,889800.0368373618
1256,0.0
2,1, 1,21, 0,19,50.00,60.00,WinterDesignDay
8,889800.0368373618
1256,0.0
2,1, 1,21, 0,20, 0.00,10.00,WinterDesignDay
8,889800.0368367706
1256,0.0
2,1, 1,21, 0,20,10.00,20.00,WinterDesignDay
8,889800.0368367706
1256,0.0
2,1, 1,21, 0,20,20.00,30.00,WinterDesignDay
8,889800.0368367706
1256,0.0
2,1, 1,21, 0,20,30.00,40.00,WinterDesignDay
8,889800.0368367706
1256,0.0
2,1, 1,21, 0,20,40.00,50.00,WinterDesignDay
8,889800.0368367706
1256,0.0
2,1, 1,21, 0,20,50.00,60.00,WinterDesignDay
8,889800.0368367706
1256,0.0
2,1, 1,21, 0,21, 0.00,10.00,WinterDesignDay
8,889800.0368370506
1256,0.0
2,1, 1,21, 0,21,10.00,20.00,WinterDesignDay
8,889800.0368370506
1256,0.0
2,1, 1,21, 0,21,20.00,30.00,WinterDesignDay
8,889800.0368370506
1256,0.0
2,1, 1,21, 0,21,30.00,40.00,WinterDesignDay
8,889800.0368370506
1256,0.0
2,1, 1,21, 0,21,40.00,50.00,WinterDesignDay
8,889800.0368370506
1256,0.0
2,1, 1,21, 0,21,50.00,60.00,WinterDesignDay
8,889800.0368370506
1256,0.0
2,1, 1,21, 0,22, 0.00,10.00,WinterDesignDay
8,889800.0368364905
1256,0.0
2,1, 1,21, 0,22,10.00,20.00,WinterDesignDay
8,889800.0368364905
1256,0.0
2,1, 1,21, 0,22,20.00,30.00,WinterDesignDay
8,889800.0368364905
1256,0.0
2,1, 1,21, 0,22,30.00,40.00,WinterDesignDay
8,889800.0368364905
1256,0.0
2,1, 1,21, 0,22,40.00,50.00,WinterDesignDay
8,889800.0368364905
1256,0.0
2,1, 1,21, 0,22,50.00,60.00,WinterDesignDay
8,889800.0368364905
1256,0.0
2,1, 1,21, 0,23, 0.00,10.00,WinterDesignDay
8,889800.0368362104
1256,0.0
2,1, 1,21, 0,23,10.00,20.00,WinterDesignDay
8,889800.0368362104
1256,0.0
2,1, 1,21, 0,23,20.00,30.00,WinterDesignDay
8,889800.0368362104
1256,0.0
2,1, 1,21, 0,23,30.00,40.00,WinterDesignDay
8,889800.0368362104
1256,0.0
2,1, 1,21, 0,23,40.00,50.00,WinterDesignDay
8,889800.0368362104
1256,0.0
2,1, 1,21, 0,23,50.00,60.00,WinterDesignDay
8,889800.0368362104
1256,0.0
2,1, 1,21, 0,24, 0.00,10.00,WinterDesignDay
8,889800.0368362104
1256,0.0
2,1, 1,21, 0,24,10.00,20.00,WinterDesignDay
8,889800.0368362104
1256,0.0
2,1, 1,21, 0,24,20.00,30.00,WinterDesignDay
8,889800.0368362104
1256,0.0
2,1, 1,21, 0,24,30.00,40.00,WinterDesignDay
8,889800.0368362104
1256,0.0
2,1, 1,21, 0,24,40.00,50.00,WinterDesignDay
8,889800.0368362104
1256,0.0
2,1, 1,21, 0,24,50.00,60.00,WinterDesignDay
8,889800.0368362104
1256,0.0
1,TAMPA-MACDILL.AFB_FL_USA ANN CLG .4% CONDNS DB=>MWB,  27.85, -82.52,  -5.00,   8.00
2,1, 8,21, 0, 1, 0.00,10.00,SummerDesignDay
8,5755230.19735453
1256,0.0
2,1, 8,21, 0, 1,10.00,20.00,SummerDesignDay
8,5755230.19735453
1256,0.0
2,1, 8,21, 0, 1,20.00,30.00,SummerDesignDay
8,5755230.19735453
1256,0.0
2,1, 8,21, 0, 1,30.00,40.00,SummerDesignDay
8,5755230.19735453
1256,0.0
2,1, 8,21, 0, 1,40.00,50.00,SummerDesignDay
8,5755230.19735453
1256,0.0
2,1, 8,21, 0, 1,50.00,60.00,SummerDesignDay
8,5755230.19735453
1256,0.0
2,1, 8,21, 0, 2, 0.00,10.00,SummerDesignDay
8,5755230.19735453
1256,0.0
2,1, 8,21, 0, 2,10.00,20.00,SummerDesignDay
8,5755230.19735453
1256,0.0
2,1, 8,21, 0, 2,20.00,30.00,SummerDesignDay
8,5755230.19735453
1256,0.0
2,1, 8,21, 0, 2,30.00,40.00,SummerDesignDay
8,5755230.19735453
1256,0.0
2,1, 8,21, 0, 2,40.00,50.00,SummerDesignDay
8,5755230.19735453
1256,0.0
2,1, 8,21, 0, 2,50.00,60.00,SummerDesignDay
8,5755230.19735453
1256,0.0
2,1, 8,21, 0, 3, 0.00,10.00,SummerDesignDay
8,5755230.19735453
1256,0.0
2,1, 8,21, 0, 3,10.00,20.00,SummerDesignDay
8,5755230.19735453
1256,0.0
2,1, 8,21, 0, 3,20.00,30.00,SummerDesignDay
8,5755230.19735453
1256,0.0
2,1, 8,21, 0, 3,30.00,40.00,SummerDesignDay
8,5755230.19735453
1256,0.0
2,1, 8,21, 0, 3,40.00,50.00,SummerDesignDay
8,5755230.19735453
1256,0.0
2,1, 8,21, 0, 3,50.00,60.00,SummerDesignDay
8,5755230.19735453
1256,0.0
2,1, 8,21, 0, 4, 0.00,10.00,SummerDesignDay
8,5755230.19735453
1256,0.0
2,1, 8,21, 0, 4,10.00,20.00,SummerDesignDay
8,5755230.19735453
1256,0.0
2,1, 8,21, 0, 4,20.00,30.00,SummerDesignDay
8,5755230.19735453
1256,0.0
2,1, 8,21, 0, 4,30.00,40.00,SummerDesignDay
8,5755230.19735453
1256,0.0
2,1, 8,21, 0, 4,40.00,50.00,SummerDesignDay
8,5755230.19735453
1256,0.0
2,1, 8,21, 0, 4,50.00,60.00,SummerDesignDay
8,5755230.19735453
1256,0.0
2,1, 8,21, 0, 5, 0.00,10.00,SummerDesignDay
8,5755230.19735453
1256,0.0
2,1, 8,21, 0, 5,10.00,20.00,SummerDesignDay
8,5755230.19735453
1256,0.0
2,1, 8,21, 0, 5,20.00,30.00,SummerDesignDay
8,5755230.19735453
1256,0.0
2,1, 8,21, 0, 5,30.00,40.00,SummerDesignDay
8,5755230.19735453
1256,0.0
2,1, 8,21, 0, 5,40.00,50.00,SummerDesignDay
8,5755230.19735453
1256,0.0
2,1, 8,21, 0, 5,50.00,60.00,SummerDesignDay
8,5755230.19735453
1256,0.0
2,1, 8,21, 0, 6, 0.00,10.00,SummerDesignDay
8,5755230.19735453
1256,0.0
2,1, 8,21, 0, 6,10.00,20.00,SummerDesignDay
8,5755230.19735453
1256,0.0
2,1, 8,21, 0, 6,20.00,30.00,SummerDesignDay
8,5755230.19735453
1256,0.0
2,1, 8,21, 0, 6,30.00,40.00,SummerDesignDay
8,5755230.19735453
1256,0.0
2,1, 8,21, 0, 6,40.00,50.00,SummerDesignDay
8,5755230.19735453
1256,0.0
2,1, 8,21, 0, 6,50.00,60.00,SummerDesignDay
8,5755230.19735453
1256,0.0
2,1, 8,21, 0, 7, 0.00,10.00,SummerDesignDay
8,14486306.381255222
1256,0.0
2,1, 8,21, 0, 7,10.00,20.00,SummerDesignDay
8,14493192.373759957
1256,0.0
2,1, 8,21, 0, 7,20.00,30.00,SummerDesignDay
8,14500127.704586
1256,0.0
2,1, 8,21, 0, 7,30.00,40.00,SummerDesignDay
8,14514638.581839645
1256,0.0
2,1, 8,21, 0, 7,40.00,50.00,SummerDesignDay
8,14505368.781708816
1256,0.0
2,1, 8,21, 0, 7,50.00,60.00,SummerDesignDay
8,14416132.856775524
1256,0.0
2,1, 8,21, 0, 8, 0.00,10.00,SummerDesignDay
8,14275307.72960349
1256,0.0
2,1, 8,21, 0, 8,10.00,20.00,SummerDesignDay
8,14142568.56407415
1256,0.0
2,1, 8,21, 0, 8,20.00,30.00,SummerDesignDay
8,13992569.899516517
1256,0.0
2,1, 8,21, 0, 8,30.00,40.00,SummerDesignDay
8,13897257.878910508
1256,0.0
2,1, 8,21, 0, 8,40.00,50.00,SummerDesignDay
8,13844829.773658495
1256,0.0
2,1, 8,21, 0, 8,50.00,60.00,SummerDesignDay
8,13812404.852346396
1256,0.0
2,1, 8,21, 0, 9, 0.00,10.00,SummerDesignDay
8,13798305.275347997
1256,0.0
2,1, 8,21, 0, 9,10.00,20.00,SummerDesignDay
8,13799584.892668135
1256,0.0
2,1, 8,21, 0, 9,20.00,30.00,SummerDesignDay
8,13805667.439451931
1256,0.0
2,1, 8,21, 0, 9,30.00,40.00,SummerDesignDay
8,13813666.165861944
1256,0.0
2,1, 8,21, 0, 9,40.00,50.00,SummerDesignDay
8,13821142.43229006
1256,0.0
2,1, 8,21, 0, 9,50.00,60.00,SummerDesignDay
8,13817386.759821357
1256,0.0
2,1, 8,21, 0,10, 0.00,10.00,SummerDesignDay
8,13817057.55648544
1256,0.0
2,1, 8,21, 0,10,10.00,20.00,SummerDesignDay
8,13823715.679751918
1256,0.0
2,1, 8,21, 0,10,20.00,30.00,SummerDesignDay
8,13834749.9769241
1256,0.0
2,1, 8,21, 0,10,30.00,40.00,SummerDesignDay
8,13840175.988599017
1256,0.0
2,1, 8,21, 0,10,40.00,50.00,SummerDesignDay
8,13842235.422411636
1256,0.0
2,1, 8,21, 0,10,50.00,60.00,SummerDesignDay
8,13851527.921247406
1256,0.0
2,1, 8,21, 0,11, 0.00,10.00,SummerDesignDay
8,13852729.644722655
1256,0.0
2,1, 8,21, 0,11,10.00,20.00,SummerDesignDay
8,13855365.97844277
1256,0.0
2,1, 8,21, 0,11,20.00,30.00,SummerDesignDay
8,13859760.900760481
1256,0.0
2,1, 8,21, 0,11,30.00,40.00,SummerDesignDay
8,13864589.431125183
1256,0.0
2,1, 8,21, 0,11,40.00,50.00,SummerDesignDay
8,13865383.963980155
1256,0.0
2,1, 8,21, 0,11,50.00,60.00,SummerDesignDay
8,13867651.122126272
1256,0.0
2,1, 8,21, 0,12, 0.00,10.00,SummerDesignDay
8,13860607.9144132
1256,0.0
2,1, 8,21, 0,12,10.00,20.00,SummerDesignDay
8,13852874.132488325
1256,0.0
2,1, 8,21, 0,12,20.00,30.00,SummerDesignDay
8,13845265.810069924
1256,0.0
2,1, 8,21, 0,12,30.00,40.00,SummerDesignDay
8,13855352.81970044
1256,0.0
2,1, 8,21, 0,12,40.00,50.00,SummerDesignDay
8,13868827.3039389
1256,0.0
2,1, 8,21, 0,12,50.00,60.00,SummerDesignDay
8,13882342.963856751
1256,0.0
2,1, 8,21, 0,13, 0.00,10.00,SummerDesignDay
8,13891466.961556017
1256,0.0
2,1, 8,21, 0,13,10.00,20.00,SummerDesignDay
8,13900605.108476963
1256,0.0
2,1, 8,21, 0,13,20.00,30.00,SummerDesignDay
8,13909887.594179712
1256,0.0
2,1, 8,21, 0,13,30.00,40.00,SummerDesignDay
8,13919430.447566746
1256,0.0
2,1, 8,21, 0,13,40.00,50.00,SummerDesignDay
8,13929278.63545012
1256,0.0
2,1, 8,21, 0,13,50.00,60.00,SummerDesignDay
8,13938676.169444479
1256,0.0
2,1, 8,21, 0,14, 0.00,10.00,SummerDesignDay
8,13941564.848395865
1256,0.0
2,1, 8,21, 0,14,10.00,20.00,SummerDesignDay
8,13944825.16272051
1256,0.0
2,1, 8,21, 0,14,20.00,30.00,SummerDesignDay
8,13947926.365438819
1256,0.0
2,1, 8,21, 0,14,30.00,40.00,SummerDesignDay
8,13961509.442628361
1256,0.0
2,1, 8,21, 0,14,40.00,50.00,SummerDesignDay
8,13988215.52235327
1256,0.0
2,1, 8,21, 0,14,50.00,60.00,SummerDesignDay
8,14016005.00990951
1256,0.0
2,1, 8,21, 0,15, 0.00,10.00,SummerDesignDay
8,14033300.34374619
1256,0.0
2,1, 8,21, 0,15,10.00,20.00,SummerDesignDay
8,14050056.283395112
1256,0.0
2,1, 8,21, 0,15,20.00,30.00,SummerDesignDay
8,14065013.834889378
1256,0.0
2,1, 8,21, 0,15,30.00,40.00,SummerDesignDay
8,14080192.071561143
1256,0.0
2,1, 8,21, 0,15,40.00,50.00,SummerDesignDay
8,14094299.42640362
1256,0.0
2,1, 8,21, 0,15,50.00,60.00,SummerDesignDay
8,14105821.519926494
1256,0.0
2,1, 8,21, 0,16, 0.00,10.00,SummerDesignDay
8,14102404.598464508
1256,0.0
2,1, 8,21, 0,16,10.00,20.00,SummerDesignDay
8,14092600.261301085
1256,0.0
2,1, 8,21, 0,16,20.00,30.00,SummerDesignDay
8,14084724.908561027
1256,0.0
2,1, 8,21, 0,16,30.00,40.00,SummerDesignDay
8,14068506.965196501
1256,0.0
2,1, 8,21, 0,16,40.00,50.00,SummerDesignDay
8,14048811.63461028
1256,0.0
2,1, 8,21, 0,16,50.00,60.00,SummerDesignDay
8,14026823.279629374
1256,0.0
2,1, 8,21, 0,17, 0.00,10.00,SummerDesignDay
8,13997866.184931347
1256,0.0
2,1, 8,21, 0,17,10.00,20.00,SummerDesignDay
8,13966586.308627509
1256,0.0
2,1, 8,21, 0,17,20.00,30.00,SummerDesignDay
8,13932229.062151337
1256,0.0
2,1, 8,21, 0,17,30.00,40.00,SummerDesignDay
8,13894494.681557886
1256,0.0
2,1, 8,21, 0,17,40.00,50.00,SummerDesignDay
8,13853719.42986563
1256,0.0
2,1, 8,21, 0,17,50.00,60.00,SummerDesignDay
8,13809668.295076922
1256,0.0
2,1, 8,21, 0,18, 0.00,10.00,SummerDesignDay
8,13758207.125058565
1256,0.0
2,1, 8,21, 0,18,10.00,20.00,SummerDesignDay
8,13703382.544888552
1256,0.0
2,1, 8,21, 0,18,20.00,30.00,SummerDesignDay
8,13632374.335127348
1256,0.0
2,1, 8,21, 0,18,30.00,40.00,SummerDesignDay
8,13570155.622300407
1256,0.0
2,1, 8,21, 0,18,40.00,50.00,SummerDesignDay
8,13510781.139450936
1256,0.0
2,1, 8,21, 0,18,50.00,60.00,SummerDesignDay
8,13447058.931999417
1256,0.0